# total energy = -117602.9437 eV

CRYSTAL
PRIMVEC
		10.72136612		0.00019058		0.00124938
		0.00025411		14.26217320		-0.00003176
		-2.48369061		-0.00006353		9.89555508
PRIMECORD
   156 1
Si		8.28933118		0.01615941		0.73437836		 0.00009663		-0.00006854		 0.00009776
Si		-0.05140368		14.24614191		9.16239116		-0.00009662		 0.00006853		-0.00009777
Si		1.19020869		7.14721742		4.21480209		-0.00008770		-0.00007346		-0.00010614
Si		7.04771881		7.11508390		5.68196850		 0.00008770		 0.00007346		 0.00010615
Si		3.66357494		2.70690153		6.66244479		-0.00005555		 0.00056148		 0.00006493
Si		4.57435256		11.55540085		3.23432579		 0.00005553		-0.00056147		-0.00006493
Si		3.33252843		9.83794048		8.18211709		 0.00004896		 0.00056148		-0.00006590
Si		4.90539907		4.42436084		1.71465349		-0.00004896		-0.00056148		 0.00006591
Si		1.23126366		1.78801245		4.22435882		-0.00024083		-0.00011889		-0.00000516
Si		7.00666384		12.47428887		5.67241177		 0.00024083		 0.00011888		 0.00000515
Si		8.24839374		8.91901011		0.72477928		 0.00024561		-0.00011768		-0.00000589
Si		-0.01046730		5.34329121		9.17199130		-0.00024562		 0.00011767		 0.00000588
Si		6.95365502		1.76139845		5.66797645		 0.00007636		 0.00005483		 0.00018126
Si		1.28427248		12.50090287		4.22879413		-0.00007637		-0.00005481		-0.00018125
Si		0.04229376		8.89237070		9.17677178		-0.00007840		 0.00005604		-0.00019121
Si		8.19563373		5.36993062		0.71999880		 0.00007841		-0.00005603		 0.00019122
Mg		4.11883563		0.00006247		4.94840117		0.00000000		 0.00000001		 0.00000001
Mg		5.36081117		7.13118507		0.00060669		 0.00000001		0.00000000		-0.00000001
Mg		4.45546308		2.49376298		3.52515696		-0.00040644		-0.00002470		-0.00017882
Mg		3.78246441		11.76853834		6.37161362		 0.00040643		 0.00002468		 0.00017884
Mg		5.02420066		9.62486228		1.42414207		 0.00056669		-0.00003477		 0.00005928
Mg		3.21372684		4.63743904		8.47262851		-0.00056668		 0.00003475		-0.00005929
Mg		5.36068306		0.00009635		0.00062363		 0.00000002		-0.00000001		-0.00000000
Mg		4.11896375		7.13115119		4.94838529		 0.00000001		-0.00000001		 0.00000002
Mg		6.26845792		0.03472970		2.89456006		 0.00029919		-0.00000778		 0.00028666
Mg		1.96946958		14.22757162		7.00221053		-0.00029918		 0.00000776		-0.00028668
Mg		3.21117725		7.16556325		2.05464369		-0.00028467		-0.00002113		-0.00026352
Mg		5.02675025		7.09673913		7.84212690		 0.00028465		 0.00002115		 0.00026352
Mg		0.42661592		0.00731313		1.50510427		-0.00025586		-0.00048841		-0.00044946
Mg		7.81131158		14.25498819		8.39166631		 0.00025584		 0.00048842		 0.00044946
Mg		9.05327547		7.13829809		3.44337314		 0.00006673		-0.00043389		 0.00055794
Mg		-0.81534797		7.12400429		6.45339639		-0.00006671		 0.00043391		-0.00055796
Mg		-0.87857210		0.00332781		6.28696574		 0.00012898		 0.00017414		 0.00007373
Mg		9.11649959		14.25897351		3.60980484		-0.00012900		-0.00017416		-0.00007373
Mg		7.87489570		7.13439535		8.55720863		-0.00032184		 0.00014417		-0.00006801
Mg		0.36303180		7.12790702		1.33956195		 0.00032182		-0.00014418		 0.00006802
Mg		3.23435332		0.03968594		2.13110281		-0.00016240		-0.00037081		-0.00044877
Mg		5.00357312		14.22261538		7.76566777		 0.00016242		 0.00037082		 0.00044875
Mg		6.24501079		7.17099701		2.81837305		 0.00022150		-0.00037025		 0.00039337
Mg		1.99291671		7.09130431		7.07839754		-0.00022149		 0.00037027		-0.00039338
Mg		6.65431109		2.41842512		1.22338301		 0.00030776		-0.00012865		-0.00012789
Mg		1.58361641		11.84387619		8.67338757		-0.00030775		 0.00012865		 0.00012788
Mg		2.82551571		9.54952655		3.72538768		-0.00045310		-0.00012904		 0.00022190
Mg		5.41241179		4.71277477		6.17138290		 0.00045311		 0.00012904		-0.00022191
Mg		-1.65686948		2.47202475		9.59569975		 0.00018616		-0.00040385		 0.00016407
Mg		9.89479698		11.79027762		0.30107083		-0.00018616		 0.00040386		-0.00016408
Mg		8.65337202		9.60289430		5.24597585		-0.00042997		-0.00037109		 0.00011790
Mg		-0.41544452		4.65940702		4.65079474		 0.00043000		 0.00037109		-0.00011792
Mg		0.47475320		2.52749846		7.43762084		 0.00006413		 0.00014808		 0.00033845
Mg		7.76317430		11.73480392		2.45914975		-0.00006413		-0.00014807		-0.00033845
Mg		6.52206062		9.65838707		7.40759751		-0.00003168		 0.00019525		-0.00042199
Mg		1.71586687		4.60391425		2.48917202		 0.00003169		-0.00019527		 0.00042199
Mg		6.08396096		2.50769890		8.85676855		-0.00032962		-0.00039178		 0.00011618
Mg		2.15396654		11.75460242		1.04000203		 0.00032962		 0.00039179		-0.00011617
Mg		0.91171465		9.63870715		5.98932330		 0.00048634		-0.00041094		-0.00027319
Mg		7.32621285		4.62359523		3.90744728		-0.00048632		 0.00041093		 0.00027319
Mg		3.65436338		2.39674937		0.44387648		-0.00036897		 0.00029734		-0.00020463
Mg		4.58356412		11.86555195		9.45289305		 0.00036897		-0.00029734		 0.00020465
Mg		5.82455074		9.52764009		4.50665289		 0.00055543		 0.00036086		 0.00003363
Mg		2.41337676		4.73466228		5.39011664		-0.00055540		-0.00036088		-0.00003363
Mg		9.52177222		2.53932526		1.96995346		-0.00025976		-0.00072523		-0.00034705
Mg		-1.28384472		11.72297712		7.92681713		 0.00025973		 0.00072526		 0.00034703
Mg		-0.04055839		9.67050397		2.97987498		-0.00009081		-0.00073677		 0.00061128
Mg		8.27848589		4.59179734		6.91689454		 0.00009079		 0.00073677		-0.00061127
O		3.67940718		1.07961597		6.63002010		-0.00017450		-0.00055720		 0.00041516
O		4.55851926		13.18268534		3.26675048		 0.00017450		 0.00055719		-0.00041515
O		3.31646431		8.21064752		8.21444861		 0.00018974		-0.00056045		-0.00041207
O		4.92146319		6.05165486		1.68232092		-0.00018976		 0.00056048		 0.00041208
O		5.80359497		1.23925230		4.55689824		-0.00026948		-0.00014821		 0.00022261
O		2.43433253		13.02305007		5.33987129		 0.00026947		 0.00014823		-0.00022260
O		3.67601478		8.37040985		0.39237221		 0.00027204		-0.00013899		-0.00023521
O		4.56191272		5.89189253		9.50439837		-0.00027203		 0.00013899		 0.00023521
O		6.96657662		3.42927416		5.66379631		-0.00015473		 0.00023839		-0.00026029
O		1.27135088		10.83302716		4.23297427		 0.00015472		-0.00023838		 0.00026028
O		0.02933405		10.56023370		9.18035264		 0.00016940		 0.00023994		 0.00027126
O		8.20859345		3.70206762		0.71641688		-0.00016940		-0.00023994		-0.00027125
O		6.59419243		1.22364983		7.20887240		-0.00018223		 0.00001996		 0.00033421
O		1.64373401		13.03865255		2.68789713		 0.00018225		-0.00001998		-0.00033420
O		0.40182623		8.35453314		7.63590866		 0.00018209		 0.00001963		-0.00034802
O		7.83610126		5.90776818		2.26086086		-0.00018208		-0.00001964		 0.00034806
O		1.25301035		3.45855315		4.20091381		 0.00005004		 0.00002307		-0.00005258
O		6.98491715		10.80374816		5.69585572		-0.00005005		-0.00002308		 0.00005259
O		8.22646493		10.58954340		0.74820629		-0.00003722		 0.00002345		 0.00003621
O		0.01146151		3.67275791		9.14856429		 0.00003722		-0.00002345		-0.00003623
O		2.77098751		1.24921879		3.79894464		 0.00005730		-0.00017987		-0.00031221
O		5.46693999		13.01308359		6.09782595		-0.00005731		 0.00017988		 0.00031219
O		6.70868365		8.38018257		1.15013841		-0.00005509		-0.00017679		 0.00031925
O		1.52924385		5.88211875		8.74663218		 0.00005509		 0.00017680		-0.00031923
O		0.81663336		1.23574026		5.75231093		-0.00024793		 0.00008103		 0.00041814
O		7.42129414		13.02656105		4.14445965		 0.00024794		-0.00008104		-0.00041812
O		6.17935249		8.36679510		9.09231660		 0.00025920		 0.00006188		-0.00042401
O		2.05857501		5.89550621		0.80445398		-0.00025919		-0.00006189		 0.00042400
O		0.07909659		1.25615816		3.13823863		-0.00001442		-0.00051967		-0.00020584
O		8.15883091		13.00614421		6.75853195		 0.00001442		 0.00051967		 0.00020582
O		9.40077786		8.38747558		1.81082006		 0.00000045		-0.00052353		 0.00022314
O		-1.16285036		5.87482573		8.08594947		-0.00000045		 0.00052352		-0.00022316
O		4.03708251		3.44975135		5.23407176		 0.00004282		 0.00005750		-0.00021322
O		4.20084499		10.81255103		4.66269777		-0.00004280		-0.00005749		 0.00021323
O		2.95936179		10.58079877		9.61053354		-0.00006764		 0.00005203		 0.00020927
O		5.27856571		3.68150254		0.28623704		 0.00006764		-0.00005203		-0.00020927
O		4.71552659		3.40827815		7.71430539		-0.00020075		 0.00014366		-0.00002834
O		3.52240091		10.85402316		2.18246520		 0.00020076		-0.00014368		 0.00002833
O		2.28055348		10.53958287		7.13046403		 0.00019139		 0.00011871		 0.00001962
O		5.95737401		3.72271845		2.76630550		-0.00019139		-0.00011872		-0.00001964
O		4.93679990		1.20299688		1.69815209		-0.00025882		-0.00052917		 0.00009000
O		3.30112760		13.05930444		8.19861849		 0.00025884		 0.00052919		-0.00008998
O		4.54260762		8.33405383		3.25119671		 0.00027024		-0.00053342		-0.00009793
O		3.69531988		5.92824749		6.64557388		-0.00027025		 0.00053341		 0.00009791
O		4.73850573		1.06097580		9.59277958		 0.00006226		 0.00022124		-0.00008619
O		3.49942177		13.20132657		0.30399100		-0.00006226		-0.00022124		 0.00008618
O		2.25723130		8.19211852		5.25197607		-0.00005300		 0.00020721		 0.00006682
O		5.98069620		6.07018280		4.64479452		 0.00005298		-0.00020717		-0.00006682
O		7.95801573		1.07549089		2.17228378		-0.00018650		-0.00007378		 0.00015591
O		0.27991177		13.18681043		7.72448575		 0.00018650		 0.00007378		-0.00015593
O		1.52167131		8.20645785		2.77690091		 0.00018882		-0.00006390		-0.00015952
O		6.71625619		6.05584347		7.11986862		-0.00018884		 0.00006389		 0.00015952
O		-1.11988849		1.02244395		8.13628376		-0.00013253		 0.00007709		 0.00010859
O		9.35781599		13.23985842		1.76048682		 0.00013251		-0.00007710		-0.00010857
O		8.11576634		8.15376243		6.70801131		 0.00014288		 0.00007633		-0.00010581
O		0.12216116		6.10853889		3.18875821		-0.00014290		-0.00007633		 0.00010581
O		9.77370944		1.13707175		0.27696407		-0.00001302		-0.00010304		 0.00019427
O		-1.53578194		13.12522956		9.61980651		 0.00001302		 0.00010304		-0.00019428
O		-0.29428180		8.26807789		4.67204274		 0.00001416		-0.00010215		-0.00019563
O		8.53221036		5.99422343		5.22472785		-0.00001415		 0.00010212		 0.00019563
O		1.38103303		1.04614201		8.74387400		 0.00030915		 0.00025239		 0.00011815
O		6.85689447		13.21616036		1.15289658		-0.00030915		-0.00025241		-0.00011815
O		5.61488293		8.17714391		6.10072812		-0.00029952		 0.00025235		-0.00011147
O		2.62304457		6.08515741		3.79604141		 0.00029950		-0.00025234		 0.00011149
O		2.06056873		1.04158917		0.70905187		 0.00017751		 0.00000720		 0.00023305
O		6.17735877		13.22071320		9.18771872		-0.00017750		-0.00000719		-0.00023304
O		7.41903572		8.17260166		4.23970189		-0.00016621		 0.00002510		-0.00020261
O		0.81889178		6.08970072		5.65706870		 0.00016622		-0.00002511		 0.00020262
O		2.23834548		3.41704290		7.07482621		-0.00009818		-0.00026442		 0.00008905
O		5.99958202		10.84525948		2.82194438		 0.00009817		 0.00026440		-0.00008905
O		4.75785424		10.54772822		7.76926663		 0.00009507		-0.00025418		-0.00007709
O		3.48007326		3.71457416		2.12750395		-0.00009508		 0.00025420		 0.00007709
O		8.47226323		1.23752540		5.22140110		 0.00016142		-0.00045639		 0.00016950
O		-0.23433573		13.02477697		4.67536843		-0.00016143		 0.00045639		-0.00016948
O		-1.47631126		8.36841824		9.62317879		-0.00016530		-0.00044853		-0.00016259
O		9.71423876		5.89388413		0.27359179		 0.00016528		 0.00044853		 0.00016259
O		-0.86474099		3.52022931		6.29731127		 0.00022021		-0.00017668		-0.00007827
O		9.10266849		10.74207307		3.59945825		-0.00022024		 0.00017666		 0.00007827
O		7.86017202		10.65197237		8.54844600		-0.00018430		-0.00019479		 0.00005914
O		0.37775548		3.61032895		1.34832458		 0.00018434		 0.00019470		-0.00005908
O		8.97601802		3.53018203		3.61265196		-0.00031606		-0.00070993		 0.00047110
O		-0.73809052		10.73211929		6.28411863		 0.00031606		 0.00070990		-0.00047108
O		0.50457536		10.66088111		1.33684084		 0.00030094		-0.00072042		-0.00048389
O		7.73335214		3.60142021		8.55992975		-0.00030092		 0.00072036		 0.00048385
H		-1.28470235		2.72366021		5.90733195		-0.00041474		-0.00004065		 0.00085754
H		9.52262985		11.53864110		3.98943863		 0.00041476		 0.00004067		-0.00085751
H		8.28062573		9.85531115		8.93769052		 0.00042625		-0.00002551		-0.00081054
H		-0.04269823		4.40699016		0.95908007		-0.00042629		 0.00002562		 0.00081050
H		8.82209497		2.74247085		4.17941593		 0.00003074		-0.00008156		-0.00053666
H		-0.58416747		11.51983046		5.71735465		-0.00003074		 0.00008159		 0.00053663
H		0.65765031		9.87317311		0.76984393		-0.00000290		-0.00007447		 0.00054283
H		7.58027719		4.38912821		9.12692666		 0.00000289		 0.00007453		-0.00054279
