# total energy = -7715.74509421 eV	

CRYSTAL	
PRIMVEC	
		4.34119943		0.00000000		0.00000000	
		0.00000000		4.34119943		0.00000000	
		0.00000000		0.00000000		4.34119943	
PRIMCOORD
   8 1	
Ca		0.00000000		0.00000000		0.00000000		 0.00000003		 0.00000006		0.00000000	
Mg		0.00000000		2.17060016		2.17060016		 0.00000005		-0.00000009		-0.00000004	
Mg		2.17060016		0.00000000		2.17060016		-0.00000006		 0.00000007		-0.00000005	
Mg		2.17060016		2.17060016		0.00000000		-0.00000007		-0.00000009		 0.00000003	
O		0.00000000		0.00000000		2.17059972		 0.00000002		 0.00000003		 0.00000001	
O		2.17059972		0.00000000		0.00000000		 0.00000003		 0.00000002		 0.00000003	
O		0.00000000		2.17059972		0.00000000		 0.00000006		 0.00000003		 0.00000007	
O		2.17060016		2.17060016		2.17060016		-0.00000006		-0.00000003		-0.00000007	
