# total energy = -7715.82634992 eV	

CRYSTAL	
PRIMVEC	
		4.38736245		0.00000000		0.00000000	
		0.00000000		4.38736245		0.00000000	
		0.00000000		0.00000000		4.38736245	
PRIMCOORD
   8 1	
Ca		0.00000000		0.00000000		0.00000000		 0.00000003		 0.00000005		0.00000000	
Mg		0.00000000		2.19368211		2.19368211		 0.00000004		-0.00000007		-0.00000003	
Mg		2.19368211		0.00000000		2.19368211		-0.00000005		 0.00000006		-0.00000004	
Mg		2.19368211		2.19368211		0.00000000		-0.00000006		-0.00000008		 0.00000002	
O		0.00000000		0.00000000		2.19368167		 0.00000002		 0.00000003		 0.00000001	
O		2.19368167		0.00000000		0.00000000		 0.00000003		 0.00000001		 0.00000003	
O		0.00000000		2.19368167		0.00000000		 0.00000006		 0.00000003		 0.00000007	
O		2.19368211		2.19368211		2.19368211		-0.00000006		-0.00000003		-0.00000006	
