# total energy = -49443.7125441 eV	

CRYSTAL	
PRIMVEC	
		14.02399591		0.00000000		-1.12191686	
		0.00000000		5.10900214		0.00000000	
		-0.69864279		0.00000000		8.73299971	
PRIMCOORD
   70 1	
Mg		2.42385252		1.67524155		-0.14791942		-0.00004439		 0.00020811		 0.00011219	
Mg		11.59274320		3.43375918		-0.88143033		 0.00048088		 0.00024198		 0.00005798	
Mg		9.08653189		0.87925952		3.65762060		-0.00004439		-0.00020811		 0.00011219	
Mg		4.23142244		4.22974122		4.04602936		 0.00048088		-0.00024198		 0.00005798	
Mg		2.36685838		4.27010181		1.33088082		 0.00027359		-0.00005988		-0.00075169	
Mg		11.41233750		0.83889752		0.60724198		 0.00016414		 0.00034329		 0.00003131	
Mg		9.02953916		3.39339859		5.13642084		 0.00027359		 0.00005988		-0.00075169	
Mg		4.05101815		1.71560214		5.53470167		 0.00016414		-0.00034329		 0.00003131	
Mg		4.31727732		1.76822510		2.46773594		 0.00002209		 0.00010923		 0.00005758	
Mg		9.25372557		3.34077563		2.07282036		-0.00026198		-0.00031422		 0.00026170	
Mg		10.97995670		0.78627456		6.27327736		 0.00002209		-0.00010923		 0.00005758	
Mg		1.89240482		4.32272477		7.00028145		-0.00026198		 0.00031422		 0.00026170	
Mg		-0.57889334		2.55449966		7.23616326		 0.00029792		 0.00013124		-0.00036413	
Mg		6.78242741		0.00000000		2.30870357		 0.00029792		-0.00013124		-0.00036413	
Mg		-0.13064574		2.55449966		1.63307031		 0.00028207		-0.00017741		 0.00050787	
Mg		6.53203364		0.00000000		5.43861033		 0.00028207		 0.00017741		 0.00050787	
Mg		-0.46284962		0.00000000		5.78561318		 0.00039297		-0.00013949		 0.00028365	
Mg		6.89847114		2.55449966		0.85815349		 0.00039297		 0.00013949		 0.00028365	
Mg		-0.24137990		0.00000000		3.01725080		-0.00041130		-0.00069679		-0.00065967	
Mg		6.42129948		2.55449966		6.82279082		-0.00041130		 0.00069679		-0.00065967	
Si		-0.00537991		0.00000000		0.06724467		-0.00009338		 0.00012462		-0.00011336	
Si		6.65730087		2.55449966		3.87278328		-0.00009338		-0.00012462		-0.00011336	
Si		5.27787564		0.07203650		-0.37797674		 0.00004778		 0.00002339		 0.00046311	
Si		8.73899724		5.03696283		-0.65486630		-0.00022790		 0.00029297		-0.00003035	
Si		11.94055642		2.48246316		3.42756328		 0.00004778		-0.00002339		 0.00046311	
Si		1.37767929		2.62653757		4.27259339		-0.00022790		-0.00029297		-0.00003035	
O		5.12999843		3.62125837		8.21117506		 0.00024721		 0.00025330		 0.00059348	
O		7.50566388		1.48774096		8.02112239		-0.00013156		 0.00032656		 0.00008402	
O		12.49131918		4.04224063		3.28371537		 0.00024721		-0.00025330		 0.00059348	
O		0.84298451		1.06675870		4.21558237		-0.00013156		-0.00032656		 0.00008402	
O		1.09458539		3.54104789		-0.04418168		-0.00000017		-0.00000273		-0.00010257	
O		12.92242817		1.56795144		-0.99040870		 0.00001534		 0.00013960		-0.00010411	
O		7.75726617		4.12245251		3.76135834		-0.00000017		 0.00000273		-0.00010257	
O		5.56110741		0.98654822		3.93705099		 0.00001534		-0.00013960		-0.00010411	
O		3.25788646		0.11239850		2.73383894		 0.00037197		 0.00016972		-0.00002288	
O		10.28391101		4.99660224		2.17175642		-0.00087347		 0.00021252		-0.00024302	
O		9.92056724		2.44210257		6.53937896		 0.00037197		-0.00016972		-0.00002288	
O		2.92259166		2.66689816		7.09921751		-0.00087347		-0.00021252		-0.00024302	
O		3.46574461		2.61580730		1.12843212		 0.00008906		-0.00008540		-0.00005856	
O		10.33189548		2.49319203		0.57913955		 0.00006656		 0.00006648		 0.00050597	
O		10.12842539		5.04769170		4.93397214		 0.00008906		 0.00008540		-0.00005856	
O		2.97057613		0.06130763		5.50659924		 0.00006656		-0.00006648		 0.00050597	
O		0.95886222		0.73569580		1.25175645		-0.00009357		-0.00028328		-0.00002252	
O		12.85121469		4.37330353		0.30036758		-0.00007593		 0.00037594		-0.00011181	
O		7.62154160		1.81880386		5.05729647		-0.00009357		 0.00028328		-0.00002252	
O		5.48989394		3.29019547		5.22782727		-0.00007593		-0.00037594		-0.00011181	
O		5.77467750		3.30552343		2.67827138		 0.00001211		-0.00033817		 0.00032174	
O		7.74364757		1.80347731		2.52075423		-0.00019517		 0.00019615		-0.00059447	
O		12.43735828		4.35797697		6.48381140		 0.00001211		 0.00033817		 0.00032174	
O		0.38232681		0.75102236		7.44821392		-0.00019517		-0.00019615		-0.00059447	
O		5.70123553		0.78167688		0.93137037		 0.00026189		 0.00053515		 0.00006698	
O		8.09933932		4.32732245		0.73952252		-0.00001108		-0.00055206		-0.00046201	
O		12.36391631		1.77282279		4.73691039		 0.00026189		-0.00053515		 0.00006698	
O		0.73801997		3.33617654		5.66698221		-0.00001108		 0.00055206		-0.00046201	
O		1.00367699		3.49966450		2.93847253		 0.00011829		 0.00013193		-0.00007147	
O		12.53420934		1.60933483		2.01602881		 0.00012949		-0.00026796		 0.00079895	
O		7.66635637		4.16383450		6.74401254		 0.00011829		-0.00013193		-0.00007147	
O		5.17288999		0.94516483		6.94348991		 0.00012949		 0.00026796		 0.00079895	
O		3.63854471		0.02452333		-0.23034432		-0.00008328		-0.00066306		-0.00016505	
O		10.37567479		5.08447740		-0.76931462		-0.00012863		-0.00021861		 0.00004840	
O		10.30122408		2.52997633		3.57519569		-0.00008328		 0.00066306		-0.00016505	
O		3.01435544		2.57902300		4.15814648		-0.00012863		 0.00021861		 0.00004840	
H		4.13733590		3.06539988		0.53672351		 0.00013298		-0.00047784		-0.00010567	
H		9.74693567		2.04359945		0.08795536		 0.00014020		 0.00006538		 0.00004361	
H		10.80001527		4.59810052		4.34226352		 0.00013298		 0.00047784		-0.00010567	
H		2.38561632		0.51090021		5.01541645		 0.00014020		-0.00006538		 0.00004361	
H		3.47209245		0.91962010		3.62693091		-0.00068880		-0.00029657		-0.00033290	
H		9.92313198		4.18938063		3.11084775		-0.00022593		-0.00020945		 0.00007768	
H		10.13477183		1.63487956		7.43247092		-0.00068880		 0.00029657		-0.00033290	
H		2.56181263		3.47411977		8.03830744		-0.00022593		 0.00020945		 0.00007768	
