# total energy = -22469.9812504 eV

CRYSTAL
PRIMVEC
		9.75923788		0.00000000		0.00715868
		0.00000000		8.87455171		0.00000000
		-1.43455068		0.00000000		5.05352129
PRIMECORD
   40 1
Mg		-0.35863621		8.06686858		1.26338032		-0.00000007		-0.00037273		 0.00000004
Mg		-1.07590960		0.80768313		3.79013999		 0.00000005		 0.00037279		-0.00000004
Mg		4.52098468		3.62959272		1.26695869		-0.00000001		-0.00037247		 0.00000001
Mg		3.80371129		5.24495899		3.79371933		 0.00000006		 0.00037237		0.00000000
Ca		-0.35863621		2.67471837		1.26338032		 0.00000001		 0.00023990		 0.00000004
Ca		-1.07590863		6.19983333		3.79013999		-0.00000004		-0.00023993		-0.00000003
Ca		4.52098468		7.11199423		1.26695869		 0.00000004		 0.00023935		 0.00000003
Ca		3.80371129		1.76255748		3.79371933		-0.00000002		-0.00023939		-0.00000004
Si		2.46514535		0.83646784		1.17406435		 0.00005820		 0.00000056		-0.00011867
Si		5.85955159		8.03808387		3.88661269		-0.00005824		-0.00000040		 0.00011865
Si		6.57682401		0.83646784		1.35985205		-0.00005779		-0.00000007		 0.00011892
Si		1.74787196		8.03808387		3.70082499		 0.00005825		-0.00000022		-0.00011869
Si		7.34476819		5.27374467		1.17764369		 0.00005143		-0.00000352		-0.00012145
Si		0.97992875		3.60080704		3.88303335		-0.00005184		 0.00000301		 0.00012121
Si		1.69720117		5.27374467		1.35627368		-0.00005092		-0.00000396		 0.00012176
Si		6.62749480		3.60080801		3.70440433		 0.00005134		 0.00000357		-0.00012155
O		0.92121882		0.78506268		0.72273347		-0.00038355		 0.00000827		-0.00002125
O		7.40347715		8.08949000		4.33794358		 0.00038350		-0.00000831		 0.00002122
O		8.12075055		0.78506268		1.81118391		 0.00038349		 0.00000834		 0.00002121
O		0.20394640		8.08949000		3.24949411		-0.00038370		-0.00000841		-0.00002127
O		5.80083873		5.22233756		0.72631183		-0.00037913		 0.00000871		-0.00001992
O		2.52385724		3.65221415		4.33436618		 0.00037948		-0.00000872		 0.00001998
O		3.24113063		5.22233756		1.80760554		 0.00037892		 0.00000880		 0.00001981
O		5.08356631		3.65221415		3.25307150		-0.00037925		-0.00000877		-0.00001987
O		3.06673838		2.23966156		1.63964539		 0.00007483		-0.00016830		 0.00034628
O		5.25795856		6.63489015		3.42103263		-0.00007485		 0.00016833		-0.00034629
O		5.97523098		2.23966156		0.89427199		-0.00007502		-0.00016750		-0.00034648
O		2.34946499		6.63489015		4.16640506		 0.00007486		 0.00016811		 0.00034633
O		7.94635829		6.67693741		1.64322278		 0.00007720		-0.00016396		 0.00034762
O		0.37833767		2.19761527		3.41745426		-0.00007700		 0.00016435		-0.00034747
O		1.09561107		6.67693644		0.89069460		-0.00007730		-0.00016400		-0.00034759
O		7.22908588		2.19761527		4.16998342		 0.00007714		 0.00016424		 0.00034750
O		2.00857549		0.17237126		5.03731248		-0.00015960		 0.00014082		-0.00019159
O		6.31612146		8.70218142		0.02336554		 0.00015960		-0.00014092		 0.00019149
O		5.59884807		0.17237126		2.55012521		 0.00015948		 0.00014093		 0.00019156
O		2.72584790		8.70218142		2.51055183		-0.00015959		-0.00014102		-0.00019148
O		6.88819540		4.60964712		5.04089084		-0.00015864		 0.00014091		-0.00019117
O		1.43650057		4.26490557		0.01978717		 0.00015865		-0.00014086		 0.00019124
O		0.71922718		4.60964712		2.54654782		 0.00015855		 0.00014118		 0.00019104
O		7.60546879		4.26490557		2.51413020		-0.00015854		-0.00014108		-0.00019110
