# total energy = -24707.5892013 eV	

CRYSTAL	
PRIMVEC	
		9.53870319		-1.52619676		0.00000000	
		-1.38561444		8.66009508		0.00000000	
		-1.68715207		0.26993969		4.98419534	
PRIMCOORD
   40 1	
Mg		-1.67466166		7.89794918		1.24604835		-0.00008709		-0.00073791		-0.00023613	
Mg		-1.39810582		1.03209622		3.73814313		 0.00008709		 0.00073791		 0.00023613	
Mg		3.78749619		2.80480326		1.24604835		-0.00009721		-0.00077155		-0.00022469	
Mg		2.67843566		4.59905021		3.73814313		 0.00009721		 0.00077155		 0.00022469	
Mg		-0.81752005		2.54081124		1.24604835		-0.00013024		 0.00029279		-0.00021637	
Mg		-2.25524839		6.38923416		3.73814313		 0.00013024		-0.00029279		 0.00021637	
Mg		3.25902142		6.10776523		1.24604835		-0.00012660		 0.00031432		-0.00020200	
Mg		3.20690946		1.29608824		3.73814313		 0.00012660		-0.00031432		 0.00020200	
Si		2.24551205		0.41688217		1.22461566		 0.00016827		 0.00043369		 0.00041008	
Si		4.22041980		6.98696936		3.75957486		-0.00016827		-0.00043369		-0.00041008	
Si		6.19471413		-0.21498962		1.26748008		 0.00033655		-0.00050079		-0.00036668	
Si		0.27121772		7.61884308		3.71671043		-0.00033655		 0.00050079		 0.00036668	
Si		6.32205353		3.98383616		1.22461566		 0.00013443		 0.00065166		 0.00046887	
Si		0.14387832		3.42001634		3.75957486		-0.00013443		-0.00065166		-0.00046887	
Si		0.73255628		4.87815534		1.26748008		 0.00039873		-0.00047245		-0.00034124	
Si		5.73337556		2.52569620		3.71671043		-0.00039873		 0.00047245		 0.00034124	
O		0.73031709		0.58184929		0.68781782		 0.00023835		-0.00056700		-0.00016469	
O		5.73561476		6.82200321		4.29637270		-0.00023835		 0.00056700		 0.00016469	
O		7.73534876		-0.53895589		1.80427696		-0.00011901		-0.00068030		-0.00039203	
O		-1.26941692		7.94280743		3.17991356		 0.00011901		 0.00068030		 0.00039203	
O		4.80685857		4.14880328		0.68781782		 0.00030118		-0.00057769		-0.00013396	
O		1.65907328		3.25504922		4.29637270		-0.00030118		 0.00057769		 0.00013396	
O		2.27319092		4.55419003		1.80427696		-0.00016271		-0.00065515		-0.00040308	
O		4.19274093		2.84966247		3.17991356		 0.00016271		 0.00065515		 0.00040308	
O		2.57485219		1.76259975		1.58447375		 0.00040400		 0.00042459		-0.00015633	
O		3.89107869		5.64125275		3.39971676		-0.00040400		-0.00042459		 0.00015633	
O		5.40612488		1.30959585		0.90762102		 0.00054675		-0.00001360		-0.00014789	
O		1.05980697		6.09425665		4.07656949		-0.00054675		 0.00001360		 0.00014789	
O		6.65139464		5.32955277		1.58447375		 0.00032954		 0.00020840		-0.00025953	
O		-0.18546182		2.07429876		3.39971676		-0.00032954		-0.00020840		 0.00025953	
O		-0.05603297		6.40274177		0.90762102		 0.00053121		-0.00003930		-0.00015351	
O		6.52196481		1.00110977		4.07656949		-0.00053121		 0.00003930		 0.00015351	
O		3.32702605		-0.47747467		0.12859230		 0.00018853		 0.00017334		 0.00036777	
O		3.13890483		7.88132717		4.85559918		-0.00018853		-0.00017334		-0.00036777	
O		5.35008419		-0.80116370		2.36350344		 0.00070954		-0.00048056		-0.00049658	
O		1.11584669		8.20501524		2.62068804		-0.00070954		 0.00048056		 0.00049658	
O		7.40356850		3.08947932		0.12859230		 0.00022315		 0.00017317		 0.00034831	
O		-0.93763665		4.31437318		4.85559918		-0.00022315		-0.00017317		-0.00034831	
O		-0.11207269		4.29198222		2.36350344		 0.00069801		-0.00046351		-0.00052824	
O		6.57800551		3.11187028		2.62068804		-0.00069801		 0.00046351		 0.00052824	
