# total energy = -24715.2109899 eV	

CRYSTAL	
PRIMVEC	
		9.53870007		-0.38154762		0.00000000	
		-0.34640759		8.66010381		0.00000000	
		-1.68715111		0.06748299		4.98419491	
PRIMCOORD
   40 1	
Mg		-0.73500708		7.84733330		1.24604777		 0.00063891		 0.00048999		 0.00006383	
Mg		-1.29854971		0.88025159		3.73814332		-0.00063891		-0.00048999		-0.00006383	
Mg		4.20754484		3.32650949		1.24604777		 0.00063702		 0.00048322		 0.00006473	
Mg		3.29759748		5.01952778		3.73814332		-0.00063702		-0.00048322		-0.00006473	
Mg		-0.52072067		2.49019583		1.24604777		-0.00005136		-0.00017075		 0.00040065	
Mg		-1.51283517		6.23739002		3.73814332		 0.00005136		 0.00017075		-0.00040065	
Mg		4.07542653		6.62947201		1.24604777		-0.00004735		-0.00015964		 0.00039986	
Mg		3.42971675		1.71656621		3.73814332		 0.00004735		 0.00015964		-0.00039986	
Si		2.34109937		0.70163789		1.22461627		 0.00025554		-0.00037030		 0.00033258	
Si		5.16404486		7.64440033		3.75957482		-0.00025554		 0.00037030		-0.00033258	
Si		6.29030054		0.54367004		1.26748023		 0.00016005		-0.00030919		-0.00008271	
Si		1.21484274		7.80236914		3.71671086		-0.00016005		 0.00030919		 0.00008271	
Si		6.93724657		4.84091312		1.22461627		 0.00030103		-0.00031518		 0.00036204	
Si		0.56789671		3.50512414		3.75957482		-0.00030103		 0.00031518		-0.00036204	
Si		1.34774862		5.06449289		1.26748023		 0.00009365		-0.00026427		-0.00011576	
Si		6.15739466		3.28154533		3.71671086		-0.00009365		 0.00026427		 0.00011576	
O		0.81636375		0.68325358		0.68781768		-0.00044187		 0.00006232		 0.00020323	
O		6.68877953		7.66278274		4.29637246		 0.00044187		-0.00006232		-0.00020323	
O		7.82139592		0.40305263		1.80427692		 0.00009708		 0.00005308		-0.00032776	
O		-0.31625169		7.94298463		3.17991418		-0.00009708		-0.00005308		 0.00032776	
O		5.41251190		4.82253072		0.68781768		-0.00046196		 0.00006081		 0.00019667	
O		2.09263233		3.52350751		4.29637246		 0.00046196		-0.00006081		-0.00019667	
O		2.87884401		4.92387644		1.80427692		 0.00013302		 0.00005019		-0.00031175	
O		4.62630022		3.42216083		3.17991418		-0.00013302		-0.00005019		 0.00031175	
O		2.84265674		2.11443137		1.58447368		-0.00009604		-0.00069670		 0.00009228	
O		4.66248558		6.23160781		3.39971646		 0.00009604		 0.00069670		-0.00009228	
O		5.67392949		2.00117947		0.90762091		 0.00036032		-0.00004014		 0.00050283	
O		1.83121379		6.34485875		4.07657018		-0.00036032		 0.00004014		-0.00050283	
O		7.43880584		6.25370565		1.58447368		-0.00011818		-0.00074536		 0.00007973	
O		0.06633934		2.09233067		3.39971646		 0.00011818		 0.00074536		-0.00007973	
O		0.73137757		6.52200423		0.90762091		 0.00038480		-0.00008035		 0.00051452	
O		6.77376571		1.82403399		4.07657018		-0.00038480		 0.00008035		-0.00051452	
O		3.33378093		-0.07715056		0.12859190		 0.00006329		 0.00049859		-0.00017904	
O		4.17136139		8.42318878		4.85559919		-0.00006329		-0.00049859		 0.00017904	
O		5.35683867		-0.15807287		2.36350365		-0.00012746		 0.00082561		 0.00032745	
O		2.14830365		8.50411109		2.62068744		 0.00012746		-0.00082561		-0.00032745	
O		7.92993003		4.06212467		0.12859190		 0.00006345		 0.00049681		-0.00018792	
O		-0.42478485		4.28391259		4.85559919		-0.00006345		-0.00049681		 0.00018792	
O		0.41428675		4.36275094		2.36350365		-0.00012433		 0.00082597		 0.00032746	
O		7.09085652		3.98328728		2.62068744		 0.00012433		-0.00082597		-0.00032746	
