# total energy = -24713.5777201 eV	

CRYSTAL	
PRIMVEC	
		9.53869699		-0.76309385		0.00000000	
		-0.69280826		8.66010320		0.00000000	
		-1.68715078		0.13497321		4.98419082	
PRIMCOORD
   40 1	
Mg		-1.04822463		7.86420527		1.24604818		 0.00067596		-0.00015990		 0.00006047	
Mg		-1.33173536		0.93086732		3.73814264		-0.00067596		 0.00015990		-0.00006047	
Mg		4.06752895		3.15260770		1.24604818		 0.00067175		-0.00016363		 0.00006315	
Mg		3.09121092		4.87936912		3.73814264		-0.00067175		 0.00016363		-0.00006315	
Mg		-0.61965383		2.50706830		1.24604818		-0.00009100		-0.00026921		 0.00046766	
Mg		-1.76030616		6.28800524		3.73814264		 0.00009100		 0.00026921		-0.00046766	
Mg		3.80329149		6.45557011		1.24604818		-0.00009244		-0.00026376		 0.00046403	
Mg		3.35544741		1.57640672		3.73814264		 0.00009244		 0.00026376		-0.00046403	
Si		2.30923709		0.60671917		1.22461610		-0.00003921		-0.00042364		 0.00025693	
Si		4.84950277		7.42525669		3.75957472		 0.00003921		 0.00042364		-0.00025693	
Si		6.25843745		0.29078330		1.26748026		 0.00009256		-0.00014937		-0.00024275	
Si		0.90030050		7.74119257		3.71671056		-0.00009256		 0.00014937		 0.00024275	
Si		6.73218241		4.55522098		1.22461610		-0.00006669		-0.00037603		 0.00027208	
Si		0.42655745		3.47675489		3.75957472		 0.00006669		 0.00037603		-0.00027208	
Si		1.14268387		5.00238087		1.26748026		 0.00018711		-0.00017385		-0.00019986	
Si		6.01605599		3.02959500		3.71671056		-0.00018711		 0.00017385		 0.00019986	
O		0.78768184		0.64945320		0.68781793		-0.00035978		 0.00045267		-0.00005203	
O		6.37105898		7.38252267		4.29637289		 0.00035978		-0.00045267		 0.00005203	
O		7.79271396		0.08904978		1.80427652		 0.00018591		-0.00012947		 0.00000093	
O		-0.63397410		7.94292609		3.17991430		-0.00018591		 0.00012947		-0.00000093	
O		5.21062716		4.59795500		0.68781793		-0.00033252		 0.00045318		-0.00004480	
O		1.94811175		3.43402182		4.29637289		 0.00033252		-0.00045318		 0.00004480	
O		2.67695847		4.80064735		1.80427652		 0.00011715		-0.00013439		-0.00002450	
O		4.48177948		3.23132756		3.17991430		-0.00011715		 0.00013439		 0.00002450	
O		2.75338843		1.99715377		1.58447353		-0.00005886		-0.00048454		-0.00016391	
O		4.40535048		6.03482306		3.39971729		 0.00005886		 0.00048454		 0.00016391	
O		5.58466133		1.77065236		0.90762092		-0.00007201		 0.00000315		 0.00022335	
O		1.57407758		6.26132447		4.07656990		 0.00007201		-0.00000315		-0.00022335	
O		7.17633471		5.94565462		1.58447353		-0.00006598		-0.00052489		-0.00017178	
O		-0.01759484		2.08632029		3.39971729		 0.00006598		 0.00052489		 0.00017178	
O		0.46890775		6.48224992		0.90762092		-0.00009674		 0.00003349		 0.00020624	
O		6.68983212		1.54972595		4.07656990		 0.00009674		-0.00003349		-0.00020624	
O		3.33153022		-0.21059170		0.12859153		 0.00030534		 0.00013148		 0.00010169	
O		3.82720965		8.24256757		4.85559929		-0.00030534		-0.00013148		-0.00010169	
O		5.35458774		-0.37243707		2.36350388		-0.00036825		 0.00089406		-0.00003551	
O		1.80415212		8.40441294		2.62068790		 0.00036825		-0.00089406		 0.00003551	
O		7.75447554		3.73791011		0.12859153		 0.00032307		 0.00012634		 0.00009173	
O		-0.59573568		4.29406576		4.85559929		-0.00032307		-0.00012634		-0.00009173	
O		0.23883416		4.33916050		2.36350388		-0.00037828		 0.00089314		-0.00003846	
O		6.91990570		3.69281441		2.62068790		 0.00037828		-0.00089314		 0.00003846	
