# total energy = -24713.7431754 eV

CRYSTAL
PRIMVEC
		9.92408034		0.00000000		0.00000904
		0.00000000		10.77766019		0.00001808
		0.00000000		0.00000904		5.59712028
PRIMECORD
   40 1
O		1.11610403		1.80906990		-0.00373401		-0.00029903		-0.00025902		-0.00063801
O		1.11614109		8.96860566		2.79483969		-0.00034333		 0.00021893		-0.00063508
O		6.07834035		7.19771831		2.80231313		-0.00080899		 0.00015092		 0.00062781
O		6.07830510		3.57994279		5.60087147		-0.00076827		-0.00011550		 0.00063087
O		3.85978027		1.81484491		-0.00713991		-0.00014764		-0.00035901		 0.00033980
O		3.85977304		8.96282612		2.79141210		-0.00010599		 0.00032401		 0.00034522
O		8.82178248		7.20360541		2.80573349		-0.00005561		-0.00020160		-0.00034235
O		8.82179694		3.57405569		5.60427375		-0.00010423		 0.00023861		-0.00033704
O		2.49145290		10.75491355		1.36358642		 0.00013615		 0.00008777		 0.00075646
O		2.49146555		0.02279003		4.16218814		 0.00013596		-0.00019850		 0.00061697
O		7.45351476		5.36605634		1.43494390		 0.00009294		 0.00018917		-0.00062094
O		7.45350844		5.41158306		4.23354652		 0.00009295		-0.00010577		-0.00072484
O		8.81586464		8.96761499		5.59777109		 0.00015888		 0.00042312		 0.00002939
O		8.81588724		1.81008498		2.79920824		 0.00010308		-0.00046942		 0.00002445
O		3.85368437		3.57892680		2.79793283		 0.00057658		 0.00009424		-0.00002648
O		3.85366268		7.19871079		-0.00061736		 0.00061979		-0.00005488		-0.00003107
O		6.07158370		8.96429767		5.59801605		 0.00015524		 0.00005738		-0.00066419
O		6.07156020		1.81337607		2.79945952		 0.00018917		-0.00008473		-0.00066486
O		1.10954262		3.57552633		2.79767703		 0.00015156		-0.00003088		 0.00066276
O		1.10956974		7.20213024		-0.00086684		 0.00010241		 0.00006910		 0.00066259
O		7.44141606		10.76801738		4.18625086		 0.00003046		 0.00010189		 0.00019554
O		7.44139798		0.00969071		1.38772778		 0.00003254		-0.00020986		 0.00005683
O		2.47934697		5.37913486		4.20940245		 0.00007671		 0.00023066		-0.00002282
O		2.47936053		5.39847742		1.41090829		 0.00007466		-0.00009280		-0.00020123
Si		2.49013230		0.90365139		-0.02105364		-0.00063662		 0.00086969		 0.00068892
Si		2.49015038		9.87395728		2.77752639		-0.00064451		-0.00070216		 0.00067751
Si		7.45205587		6.29278067		2.81963095		-0.00024915		 0.00015429		-0.00068714
Si		7.45203869		4.48492742		5.61819742		-0.00023198		-0.00028895		-0.00069851
Si		7.44237781		9.87392745		5.59167338		 0.00032349		-0.00074714		 0.00036900
Si		7.44237329		0.90369839		2.79310601		 0.00033667		 0.00090847		 0.00035965
Si		2.48047503		4.48489760		2.80404501		-0.00007997		-0.00036351		-0.00037308
Si		2.48046599		6.29282587		0.00549029		-0.00006633		 0.00016582		-0.00038184
Mg		9.92408938		2.69421122		4.19889551		 0.00030854		 0.00034269		-0.00015870
Mg		9.92408577		8.08345801		1.40034532		 0.00030723		-0.00033867		-0.00015558
Mg		4.96204740		8.08308832		4.19681293		 0.00031031		-0.00031420		 0.00015333
Mg		4.96205011		2.69457820		1.39825008		 0.00030424		 0.00030993		 0.00015586
Mg		0.00729447		2.68579591		1.40016182		 0.00000721		 0.00027046		-0.00002926
Mg		0.00731255		8.09186880		4.19874004		 0.00000134		-0.00026763		-0.00003387
Mg		4.96934639		8.07469018		1.39840826		-0.00004245		-0.00025269		 0.00003870
Mg		4.96933374		2.70297634		4.19697292		-0.00004398		 0.00024974		 0.00003522
