# total energy = -66811.5135167 eV	

CRYSTAL	
PRIMVEC	
		18.34339846		0.00000000		0.00000000	
		0.00000000		7.40442285		0.00000000	
		0.00000000		0.00000000		10.88440400	
PRIMCOORD
   112 1	
Ca		14.17192622		7.39650767		2.52060857		-0.00032639		-0.00002356		 0.00014477	
Ca		4.17147224		0.00792251		8.36378993		 0.00032639		 0.00002356		-0.00014477	
Ca		4.17147224		0.00792251		2.52060857		 0.00032639		 0.00002356		 0.00014477	
Ca		14.17192622		7.39650767		8.36378993		-0.00032639		-0.00002356		-0.00014477	
Ca		13.34317147		3.69429258		2.92159159		 0.00032639		-0.00002356		-0.00014477	
Ca		5.00022699		3.71013761		7.96281057		-0.00032639		 0.00002356		 0.00014477	
Ca		5.00022699		3.71013761		2.92159159		-0.00032639		 0.00002356		-0.00014477	
Ca		13.34317147		3.69429258		7.96281057		 0.00032639		-0.00002356		 0.00014477	
Ca		7.55546239		1.17115812		8.14849713		-0.00022859		 0.00002109		 0.00021294	
Ca		10.78793607		6.23327023		2.73590321		 0.00022859		-0.00002109		-0.00021294	
Ca		10.78793607		6.23327023		8.14849713		 0.00022859		-0.00002109		 0.00021294	
Ca		7.55546239		1.17115812		2.73590321		-0.00022859		 0.00002109		-0.00021294	
Ca		1.61623684		4.87337321		8.17810337		 0.00022859		 0.00002109		-0.00021294	
Ca		16.72716162		2.53105514		2.70629696		-0.00022859		-0.00002109		 0.00021294	
Ca		16.72716162		2.53105514		8.17810337		-0.00022859		-0.00002109		-0.00021294	
Ca		1.61623684		4.87337321		2.70629696		 0.00022859		 0.00002109		 0.00021294	
Ca		6.10413271		5.94427549		0.00000000		-0.00017803		-0.00033298		0.00000000	
Ca		12.23926575		1.46015470		0.00000000		 0.00017803		 0.00033298		0.00000000	
Ca		3.06756652		2.24206040		5.44220017		 0.00017803		-0.00033298		0.00000000	
Ca		15.27583194		5.16236795		5.44220017		-0.00017803		 0.00033298		0.00000000	
Ca		12.35024332		1.27208167		5.44220017		-0.00004990		 0.00017611		0.00000000	
Ca		5.99315515		6.13234852		5.44220017		 0.00004990		-0.00017611		0.00000000	
Ca		15.16485438		4.97429676		0.00000000		 0.00004990		 0.00017611		-0.00000000	
Ca		3.17854409		2.43013343		0.00000000		-0.00004990		-0.00017611		-0.00000000	
Ca		9.17169923		3.70221509		0.00000000		0.00000000		0.00000000		0.00000000	
Ca		0.00000000		0.00000000		5.44220017		0.00000000		0.00000000		0.00000000	
Ca		9.17169923		3.70221509		5.44220017		0.00000000		0.00000000		0.00000000	
Ca		0.00000000		0.00000000		0.00000000		0.00000000		0.00000000		0.00000000	
Si		7.68918577		5.32674682		8.18267455		 0.00010779		 0.00036351		 0.00026106	
Si		10.65421086		2.07768337		2.70172579		-0.00010779		-0.00036351		-0.00026106	
Si		10.65421086		2.07768337		8.18267455		-0.00010779		-0.00036351		 0.00026106	
Si		7.68918577		5.32674682		2.70172579		 0.00010779		 0.00036351		-0.00026106	
Si		1.48251346		1.62453172		8.14392595		-0.00010779		 0.00036351		-0.00026106	
Si		16.86088500		5.77989846		2.74047438		 0.00010779		-0.00036351		 0.00026106	
Si		16.86088500		5.77989846		8.14392595		 0.00010779		-0.00036351		-0.00026106	
Si		1.48251346		1.62453172		2.74047438		-0.00010779		 0.00036351		 0.00026106	
Si		12.17689820		5.44595873		5.44220017		-0.00035661		 0.00021275		-0.00000000	
Si		6.16650026		1.95847146		5.44220017		 0.00035661		-0.00021275		-0.00000000	
Si		15.33819949		1.74374364		0.00000000		 0.00035661		 0.00021275		0.00000000	
Si		3.00519897		5.66068655		0.00000000		-0.00035661		-0.00021275		0.00000000	
Si		6.20337049		2.09397231		0.00000000		-0.00084285		-0.00031334		0.00000000	
Si		12.14002797		5.31045604		0.00000000		 0.00084285		 0.00031334		0.00000000	
Si		2.96832874		5.79618740		5.44220017		 0.00084285		-0.00031334		0.00000000	
Si		15.37506972		1.60824279		5.44220017		-0.00084285		 0.00031334		0.00000000	
Mg		9.17169923		0.00000000		5.44220017		0.00000000		0.00000000		0.00000000	
Mg		0.00000000		3.70221509		0.00000000		0.00000000		0.00000000		0.00000000	
Mg		9.17169923		0.00000000		0.00000000		0.00000000		0.00000000		0.00000000	
Mg		0.00000000		3.70221509		5.44220017		0.00000000		0.00000000		0.00000000	
O		5.29573914		1.90293865		1.32789696		 0.00002607		-0.00005280		 0.00078739	
O		13.04765933		5.50149153		9.55650337		-0.00002607		 0.00005280		-0.00078739	
O		13.04765933		5.50149153		1.32789696		-0.00002607		 0.00005280		 0.00078739	
O		5.29573914		1.90293865		9.55650337		 0.00002607		-0.00005280		-0.00078739	
O		3.87596009		5.60515375		4.11430321		-0.00002607		-0.00005280		-0.00078739	
O		14.46743837		1.79927644		6.77009712		 0.00002607		 0.00005280		 0.00078739	
O		14.46743837		1.79927644		4.11430321		 0.00002607		 0.00005280		-0.00078739	
O		3.87596009		5.60515375		6.77009712		-0.00002607		-0.00005280		 0.00078739	
O		12.78168005		6.27451353		4.13933644		 0.00040785		-0.00014579		-0.00057811	
O		5.56171841		1.12991666		6.74506205		-0.00040785		 0.00014579		 0.00057811	
O		5.56171841		1.12991666		4.13933644		-0.00040785		 0.00014579		-0.00057811	
O		12.78168005		6.27451353		6.74506205		 0.00040785		-0.00014579		 0.00057811	
O		14.73341764		2.57229843		1.30286372		-0.00040785		-0.00014579		 0.00057811	
O		3.60998082		4.83213175		9.58153661		 0.00040785		 0.00014579		-0.00057811	
O		3.60998082		4.83213175		1.30286372		 0.00040785		 0.00014579		 0.00057811	
O		14.73341764		2.57229843		9.58153661		-0.00040785		-0.00014579		-0.00057811	
O		8.72595465		5.78211801		9.36711512		 0.00036650		-0.00040244		 0.00074811	
O		9.61744381		1.62231034		1.51728521		-0.00036650		 0.00040244		-0.00074811	
O		9.61744381		1.62231034		9.36711512		-0.00036650		 0.00040244		 0.00074811	
O		8.72595465		5.78211801		1.51728521		 0.00036650		-0.00040244		-0.00074811	
O		0.44574458		2.07990476		6.95948538		-0.00036650		-0.00040244		-0.00074811	
O		17.89765388		5.32452543		3.92491496		 0.00036650		 0.00040244		 0.00074811	
O		17.89765388		5.32452543		6.95948538		 0.00036650		 0.00040244		-0.00074811	
O		0.44574458		2.07990476		3.92491496		-0.00036650		-0.00040244		 0.00074811	
O		6.21712804		5.99832798		8.55731461		-0.00039032		-0.00056408		-0.00009058	
O		12.12627042		1.40610037		2.32708572		 0.00039032		 0.00056408		 0.00009058	
O		12.12627042		1.40610037		8.55731461		 0.00039032		 0.00056408		-0.00009058	
O		6.21712804		5.99832798		2.32708572		-0.00039032		-0.00056408		 0.00009058	
O		2.95457119		2.29611472		7.76928405		 0.00039032		-0.00056408		 0.00009058	
O		15.38882727		5.10831546		3.11511445		-0.00039032		 0.00056408		-0.00009058	
O		15.38882727		5.10831546		7.76928405		-0.00039032		 0.00056408		 0.00009058	
O		2.95457119		2.29611472		3.11511445		 0.00039032		-0.00056408		-0.00009058	
O		6.89711782		3.67185677		0.00000000		 0.00009271		 0.00006954		-0.00000000	
O		11.44628064		3.73257342		0.00000000		-0.00009271		-0.00006954		0.00000000	
O		2.27458141		7.37407186		5.44220017		-0.00009271		 0.00006954		-0.00000000	
O		16.06881705		0.03035832		5.44220017		 0.00009271		-0.00006954		-0.00000000	
O		7.54830847		3.62446843		7.82697220		-0.00037425		-0.00070288		-0.00008029	
O		10.79508999		3.77996175		3.05742813		 0.00037425		 0.00070288		 0.00008029	
O		10.79508999		3.77996175		7.82697220		 0.00037425		 0.00070288		-0.00008029	
O		7.54830847		3.62446843		3.05742813		-0.00037425		-0.00070288		 0.00008029	
O		1.62339076		7.32668353		8.49962829		 0.00037425		-0.00070288		 0.00008029	
O		16.72000770		0.07774666		2.38477204		-0.00037425		 0.00070288		-0.00008029	
O		16.72000770		0.07774666		8.49962829		-0.00037425		 0.00070288		 0.00008029	
O		1.62339076		7.32668353		2.38477204		 0.00037425		-0.00070288		-0.00008029	
O		7.29700391		0.77376307		0.00000000		 0.00059816		-0.00006905		-0.00000000	
O		11.04639455		6.63066712		0.00000000		-0.00059816		 0.00006905		-0.00000000	
O		1.87469532		4.47597816		5.44220017		-0.00059816		-0.00006905		-0.00000000	
O		16.46870314		2.92845203		5.44220017		 0.00059816		 0.00006905		0.00000000	
O		10.57313487		5.71473904		5.44220017		-0.00073333		 0.00007800		0.00000000	
O		7.77026359		1.68969114		5.44220017		 0.00073333		-0.00007800		-0.00000000	
O		16.94196282		2.01252395		0.00000000		 0.00073333		 0.00007800		0.00000000	
O		1.40143564		5.39190624		0.00000000		-0.00073333		-0.00007800		0.00000000	
O		12.74132457		3.79551145		5.44220017		 0.00054934		-0.00019649		-0.00000000	
O		5.60207389		3.60891873		5.44220017		-0.00054934		 0.00019649		-0.00000000	
O		14.77377312		0.09329636		0.00000000		-0.00054934		-0.00019649		0.00000000	
O		3.56962534		7.31113383		0.00000000		 0.00054934		 0.00019649		0.00000000	
O		8.14997194		6.22712519		6.85281851		-0.00034663		 0.00010396		-0.00087600	
O		10.19342652		1.17730316		4.03158182		 0.00034663		-0.00010396		 0.00087600	
O		10.19342652		1.17730316		6.85281851		 0.00034663		-0.00010396		-0.00087600	
O		8.14997194		6.22712519		4.03158182		-0.00034663		 0.00010396		 0.00087600	
O		1.02172729		2.52491010		9.47378198		 0.00034663		 0.00010396		 0.00087600	
O		17.32167117		4.87951825		1.41061835		-0.00034663		-0.00010396		-0.00087600	
O		17.32167117		4.87951825		9.47378198		-0.00034663		-0.00010396		 0.00087600	
O		1.02172729		2.52491010		1.41061835		 0.00034663		 0.00010396		-0.00087600	
