# total energy = -66803.5018275 eV	

CRYSTAL	
PRIMVEC	
		18.34339846		0.00000000		0.00000000	
		0.00000000		6.05816415		0.00000000	
		0.00000000		0.00000000		10.88440400	
PRIMCOORD
   112 1	
Ca		14.17192622		6.05168710		2.52060857		-0.00021652		 0.00006175		 0.00015724	
Ca		4.17147224		0.00648256		8.36378993		 0.00021652		-0.00006175		-0.00015724	
Ca		4.17147224		0.00648256		2.52060857		 0.00021652		-0.00006175		 0.00015724	
Ca		14.17192622		6.05168710		8.36378993		-0.00021652		 0.00006175		-0.00015724	
Ca		13.34317147		3.02260319		2.92159159		 0.00021652		 0.00006175		-0.00015724	
Ca		5.00022699		3.03556647		7.96281057		-0.00021652		-0.00006175		 0.00015724	
Ca		5.00022699		3.03556647		2.92159159		-0.00021652		-0.00006175		-0.00015724	
Ca		13.34317147		3.02260319		7.96281057		 0.00021652		 0.00006175		 0.00015724	
Ca		7.55546239		0.95822061		8.14849713		 0.00016037		-0.00012211		 0.00005886	
Ca		10.78793607		5.09994904		2.73590321		-0.00016037		 0.00012211		-0.00005886	
Ca		10.78793607		5.09994904		8.14849713		-0.00016037		 0.00012211		 0.00005886	
Ca		7.55546239		0.95822061		2.73590321		 0.00016037		-0.00012211		-0.00005886	
Ca		1.61623684		3.98730636		8.17810337		-0.00016037		-0.00012211		-0.00005886	
Ca		16.72716162		2.07086329		2.70629696		 0.00016037		 0.00012211		 0.00005886	
Ca		16.72716162		2.07086329		8.17810337		 0.00016037		 0.00012211		-0.00005886	
Ca		1.61623684		3.98730636		2.70629696		-0.00016037		-0.00012211		 0.00005886	
Ca		6.10413271		4.86349896		0.00000000		 0.00046651		-0.00032890		-0.00000000	
Ca		12.23926575		1.19467069		0.00000000		-0.00046651		 0.00032890		-0.00000000	
Ca		3.06756652		1.83441322		5.44220017		-0.00046651		-0.00032890		-0.00000000	
Ca		15.27583194		4.22375643		5.44220017		 0.00046651		 0.00032890		-0.00000000	
Ca		12.35024332		1.04079342		5.44220017		 0.00021555		 0.00020007		0.00000000	
Ca		5.99315515		5.01737623		5.44220017		-0.00021555		-0.00020007		0.00000000	
Ca		15.16485438		4.06987917		0.00000000		-0.00021555		 0.00020007		0.00000000	
Ca		3.17854409		1.98829049		0.00000000		 0.00021555		-0.00020007		0.00000000	
Ca		9.17169923		3.02908574		0.00000000		0.00000000		0.00000000		0.00000000	
Ca		0.00000000		0.00000000		5.44220017		0.00000000		0.00000000		0.00000000	
Ca		9.17169923		3.02908574		5.44220017		0.00000000		0.00000000		0.00000000	
Ca		0.00000000		0.00000000		0.00000000		0.00000000		0.00000000		0.00000000	
Si		7.68918577		4.35824656		8.18267455		 0.00004419		-0.00011104		-0.00009929	
Si		10.65421086		1.69992309		2.70172579		-0.00004419		 0.00011104		 0.00009929	
Si		10.65421086		1.69992309		8.18267455		-0.00004419		 0.00011104		-0.00009929	
Si		7.68918577		4.35824656		2.70172579		 0.00004419		-0.00011104		 0.00009929	
Si		1.48251346		1.32916265		8.14392595		-0.00004419		-0.00011104		 0.00009929	
Si		16.86088500		4.72900700		2.74047438		 0.00004419		 0.00011104		-0.00009929	
Si		16.86088500		4.72900700		8.14392595		 0.00004419		 0.00011104		 0.00009929	
Si		1.48251346		1.32916265		2.74047438		-0.00004419		-0.00011104		-0.00009929	
Si		12.17689820		4.45578391		5.44220017		-0.00047099		 0.00005353		0.00000000	
Si		6.16650026		1.60238574		5.44220017		 0.00047099		-0.00005353		0.00000000	
Si		15.33819949		1.42669817		0.00000000		 0.00047099		 0.00005353		-0.00000000	
Si		3.00519897		4.63147148		0.00000000		-0.00047099		-0.00005353		-0.00000000	
Si		6.20337049		1.71324957		0.00000000		 0.00011376		-0.00018498		-0.00000000	
Si		12.14002797		4.34492008		0.00000000		-0.00011376		 0.00018498		-0.00000000	
Si		2.96832874		4.74233531		5.44220017		-0.00011376		-0.00018498		0.00000000	
Si		15.37506972		1.31583434		5.44220017		 0.00011376		 0.00018498		0.00000000	
Mg		9.17169923		0.00000000		5.44220017		0.00000000		0.00000000		0.00000000	
Mg		0.00000000		3.02908574		0.00000000		0.00000000		0.00000000		0.00000000	
Mg		9.17169923		0.00000000		0.00000000		0.00000000		0.00000000		0.00000000	
Mg		0.00000000		3.02908574		5.44220017		0.00000000		0.00000000		0.00000000	
O		5.29573914		1.55694914		1.32789696		-0.00017747		 0.00030369		-0.00037759	
O		13.04765933		4.50122051		9.55650337		 0.00017747		-0.00030369		 0.00037759	
O		13.04765933		4.50122051		1.32789696		 0.00017747		-0.00030369		-0.00037759	
O		5.29573914		1.55694914		9.55650337		-0.00017747		 0.00030369		 0.00037759	
O		3.87596009		4.58603305		4.11430321		 0.00017747		 0.00030369		 0.00037759	
O		14.46743837		1.47213477		6.77009712		-0.00017747		-0.00030369		-0.00037759	
O		14.46743837		1.47213477		4.11430321		-0.00017747		-0.00030369		 0.00037759	
O		3.87596009		4.58603305		6.77009712		 0.00017747		 0.00030369		-0.00037759	
O		12.78168005		5.13369355		4.13933644		 0.00016802		 0.00009222		 0.00023450	
O		5.56171841		0.92447610		6.74506205		-0.00016802		-0.00009222		-0.00023450	
O		5.56171841		0.92447610		4.13933644		-0.00016802		-0.00009222		 0.00023450	
O		12.78168005		5.13369355		6.74506205		 0.00016802		 0.00009222		-0.00023450	
O		14.73341764		2.10460781		1.30286372		-0.00016802		 0.00009222		-0.00023450	
O		3.60998082		3.95356184		9.58153661		 0.00016802		-0.00009222		 0.00023450	
O		3.60998082		3.95356184		1.30286372		 0.00016802		-0.00009222		-0.00023450	
O		14.73341764		2.10460781		9.58153661		-0.00016802		 0.00009222		 0.00023450	
O		8.72595465		4.73082483		9.36711512		-0.00030117		 0.00012765		 0.00017388	
O		9.61744381		1.32734482		1.51728521		 0.00030117		-0.00012765		-0.00017388	
O		9.61744381		1.32734482		9.36711512		 0.00030117		-0.00012765		 0.00017388	
O		8.72595465		4.73082483		1.51728521		-0.00030117		 0.00012765		-0.00017388	
O		0.44574458		1.70173909		6.95948538		 0.00030117		 0.00012765		-0.00017388	
O		17.89765388		4.35643056		3.92491496		-0.00030117		-0.00012765		 0.00017388	
O		17.89765388		4.35643056		6.95948538		-0.00030117		-0.00012765		-0.00017388	
O		0.44574458		1.70173909		3.92491496		 0.00030117		 0.00012765		 0.00017388	
O		6.21712804		4.90772306		8.55731461		 0.00026258		-0.00002457		-0.00014558	
O		12.12627042		1.15044659		2.32708572		-0.00026258		 0.00002457		 0.00014558	
O		12.12627042		1.15044659		8.55731461		-0.00026258		 0.00002457		-0.00014558	
O		6.21712804		4.90772306		2.32708572		 0.00026258		-0.00002457		 0.00014558	
O		2.95457119		1.87863915		7.76928405		-0.00026258		-0.00002457		 0.00014558	
O		15.38882727		4.17953050		3.11511445		 0.00026258		 0.00002457		-0.00014558	
O		15.38882727		4.17953050		7.76928405		 0.00026258		 0.00002457		 0.00014558	
O		2.95457119		1.87863915		3.11511445		-0.00026258		-0.00002457		-0.00014558	
O		6.89711782		3.00424511		0.00000000		-0.00046177		 0.00056616		-0.00000000	
O		11.44628064		3.05392270		0.00000000		 0.00046177		-0.00056616		-0.00000000	
O		2.27458141		6.03333269		5.44220017		 0.00046177		 0.00056616		0.00000000	
O		16.06881705		0.02483880		5.44220017		-0.00046177		-0.00056616		0.00000000	
O		7.54830847		2.96547451		7.82697220		 0.00005752		-0.00069128		-0.00002022	
O		10.79508999		3.09269515		3.05742813		-0.00005752		 0.00069128		 0.00002022	
O		10.79508999		3.09269515		7.82697220		-0.00005752		 0.00069128		-0.00002022	
O		7.54830847		2.96547451		3.05742813		 0.00005752		-0.00069128		 0.00002022	
O		1.62339076		5.99455842		8.49962829		-0.00005752		-0.00069128		 0.00002022	
O		16.72000770		0.06361124		2.38477204		 0.00005752		 0.00069128		-0.00002022	
O		16.72000770		0.06361124		8.49962829		 0.00005752		 0.00069128		 0.00002022	
O		1.62339076		5.99455842		2.38477204		-0.00005752		-0.00069128		-0.00002022	
O		7.29700391		0.63307837		0.00000000		 0.00004390		-0.00072491		0.00000000	
O		11.04639455		5.42509128		0.00000000		-0.00004390		 0.00072491		0.00000000	
O		1.87469532		3.66216412		5.44220017		-0.00004390		-0.00072491		0.00000000	
O		16.46870314		2.39600554		5.44220017		 0.00004390		 0.00072491		0.00000000	
O		10.57313487		4.67569558		5.44220017		-0.00058296		 0.00070633		-0.00000000	
O		7.77026359		1.38247407		5.44220017		 0.00058296		-0.00070633		0.00000000	
O		16.94196282		1.64660984		0.00000000		 0.00058296		 0.00070633		-0.00000000	
O		1.40143564		4.41155798		0.00000000		-0.00058296		-0.00070633		0.00000000	
O		12.74132457		3.10541813		5.44220017		-0.00023799		 0.00008685		-0.00000000	
O		5.60207389		2.95275152		5.44220017		 0.00023799		-0.00008685		0.00000000	
O		14.77377312		0.07633238		0.00000000		 0.00023799		 0.00008685		-0.00000000	
O		3.56962534		5.98183727		0.00000000		-0.00023799		-0.00008685		0.00000000	
O		8.14997194		5.09492111		6.85281851		 0.00014369		 0.00004880		 0.00016657	
O		10.19342652		0.96324854		4.03158182		-0.00014369		-0.00004880		-0.00016657	
O		10.19342652		0.96324854		6.85281851		-0.00014369		-0.00004880		 0.00016657	
O		8.14997194		5.09492111		4.03158182		 0.00014369		 0.00004880		-0.00016657	
O		1.02172729		2.06583537		9.47378198		-0.00014369		 0.00004880		-0.00016657	
O		17.32167117		3.99233428		1.41061835		 0.00014369		-0.00004880		 0.00016657	
O		17.32167117		3.99233428		9.47378198		 0.00014369		-0.00004880		-0.00016657	
O		1.02172729		2.06583537		1.41061835		-0.00014369		 0.00004880		 0.00016657	
