# total energy = -66808.9208298 eV	

CRYSTAL	
PRIMVEC	
		18.34339846		0.00000000		0.00000000	
		0.00000000		6.22644649		0.00000000	
		0.00000000		0.00000000		10.88440400	
PRIMCOORD
   112 1	
Ca		14.17192622		6.21978967		2.52060857		-0.00059106		-0.00013728		-0.00041388	
Ca		4.17147224		0.00666232		8.36378993		 0.00059106		 0.00013728		 0.00041388	
Ca		4.17147224		0.00666232		2.52060857		 0.00059106		 0.00013728		-0.00041388	
Ca		14.17192622		6.21978967		8.36378993		-0.00059106		-0.00013728		 0.00041388	
Ca		13.34317147		3.10656459		2.92159159		 0.00059106		-0.00013728		 0.00041388	
Ca		5.00022699		3.11988923		7.96281057		-0.00059106		 0.00013728		-0.00041388	
Ca		5.00022699		3.11988923		2.92159159		-0.00059106		 0.00013728		 0.00041388	
Ca		13.34317147		3.10656459		7.96281057		 0.00059106		-0.00013728		-0.00041388	
Ca		7.55546239		0.98483872		8.14849713		 0.00044341		 0.00004481		 0.00015753	
Ca		10.78793607		5.24161510		2.73590321		-0.00044341		-0.00004481		-0.00015753	
Ca		10.78793607		5.24161510		8.14849713		-0.00044341		-0.00004481		 0.00015753	
Ca		7.55546239		0.98483872		2.73590321		 0.00044341		 0.00004481		-0.00015753	
Ca		1.61623684		4.09806380		8.17810337		-0.00044341		 0.00004481		-0.00015753	
Ca		16.72716162		2.12838819		2.70629696		 0.00044341		-0.00004481		 0.00015753	
Ca		16.72716162		2.12838819		8.17810337		 0.00044341		-0.00004481		-0.00015753	
Ca		1.61623684		4.09806380		2.70629696		-0.00044341		 0.00004481		 0.00015753	
Ca		6.10413271		4.99859626		0.00000000		-0.00087763		-0.00011979		0.00000000	
Ca		12.23926575		1.22785573		0.00000000		 0.00087763		 0.00011979		-0.00000000	
Ca		3.06756652		1.88536935		5.44220017		 0.00087763		-0.00011979		-0.00000000	
Ca		15.27583194		4.34108264		5.44220017		-0.00087763		 0.00011979		0.00000000	
Ca		12.35024332		1.06970445		5.44220017		 0.00033161		-0.00064703		-0.00000000	
Ca		5.99315515		5.15674754		5.44220017		-0.00033161		 0.00064703		-0.00000000	
Ca		15.16485438		4.18293136		0.00000000		-0.00033161		-0.00064703		-0.00000000	
Ca		3.17854409		2.04352246		0.00000000		 0.00033161		 0.00064703		-0.00000000	
Ca		9.17169923		3.11322508		0.00000000		0.00000000		0.00000000		-0.00000000	
Ca		0.00000000		0.00000000		5.44220017		0.00000000		0.00000000		-0.00000000	
Ca		9.17169923		3.11322508		5.44220017		0.00000000		0.00000000		0.00000000	
Ca		0.00000000		0.00000000		0.00000000		0.00000000		0.00000000		-0.00000000	
Si		7.68918577		4.47930932		8.18267455		 0.00009691		 0.00018797		 0.00035146	
Si		10.65421086		1.74714267		2.70172579		-0.00009691		-0.00018797		-0.00035146	
Si		10.65421086		1.74714267		8.18267455		-0.00009691		-0.00018797		 0.00035146	
Si		7.68918577		4.47930932		2.70172579		 0.00009691		 0.00018797		-0.00035146	
Si		1.48251346		1.36608424		8.14392595		-0.00009691		 0.00018797		-0.00035146	
Si		16.86088500		4.86036958		2.74047438		 0.00009691		-0.00018797		 0.00035146	
Si		16.86088500		4.86036958		8.14392595		 0.00009691		-0.00018797		-0.00035146	
Si		1.48251346		1.36608424		2.74047438		-0.00009691		 0.00018797		 0.00035146	
Si		12.17689820		4.57955600		5.44220017		 0.00011368		 0.00011884		-0.00000000	
Si		6.16650026		1.64689783		5.44220017		-0.00011368		-0.00011884		-0.00000000	
Si		15.33819949		1.46632908		0.00000000		-0.00011368		 0.00011884		-0.00000000	
Si		3.00519897		4.76012291		0.00000000		 0.00011368		-0.00011884		-0.00000000	
Si		6.20337049		1.76084152		0.00000000		 0.00010522		 0.00010761		-0.00000000	
Si		12.14002797		4.46561231		0.00000000		-0.00010522		-0.00010761		-0.00000000	
Si		2.96832874		4.87406659		5.44220017		-0.00010522		 0.00010761		-0.00000000	
Si		15.37506972		1.35238539		5.44220017		 0.00010522		-0.00010761		-0.00000000	
Mg		9.17169923		0.00000000		5.44220017		0.00000000		0.00000000		0.00000000	
Mg		0.00000000		3.11322508		0.00000000		0.00000000		0.00000000		0.00000000	
Mg		9.17169923		0.00000000		0.00000000		0.00000000		0.00000000		0.00000000	
Mg		0.00000000		3.11322508		5.44220017		0.00000000		0.00000000		0.00000000	
O		5.29573914		1.60019737		1.32789696		-0.00037698		-0.00039147		-0.00035598	
O		13.04765933		4.62625462		9.55650337		 0.00037698		 0.00039147		 0.00035598	
O		13.04765933		4.62625462		1.32789696		 0.00037698		 0.00039147		-0.00035598	
O		5.29573914		1.60019737		9.55650337		-0.00037698		-0.00039147		 0.00035598	
O		3.87596009		4.71342428		4.11430321		 0.00037698		-0.00039147		 0.00035598	
O		14.46743837		1.51302771		6.77009712		-0.00037698		 0.00039147		-0.00035598	
O		14.46743837		1.51302771		4.11430321		-0.00037698		 0.00039147		 0.00035598	
O		3.87596009		4.71342428		6.77009712		 0.00037698		-0.00039147		-0.00035598	
O		12.78168005		5.27629513		4.13933644		-0.00007446		 0.00004952		-0.00029371	
O		5.56171841		0.95015686		6.74506205		 0.00007446		-0.00004952		 0.00029371	
O		5.56171841		0.95015686		4.13933644		 0.00007446		-0.00004952		-0.00029371	
O		12.78168005		5.27629513		6.74506205		-0.00007446		 0.00004952		 0.00029371	
O		14.73341764		2.16307006		1.30286372		 0.00007446		 0.00004952		 0.00029371	
O		3.60998082		4.06338377		9.58153661		-0.00007446		-0.00004952		-0.00029371	
O		3.60998082		4.06338377		1.30286372		-0.00007446		-0.00004952		 0.00029371	
O		14.73341764		2.16307006		9.58153661		 0.00007446		 0.00004952		-0.00029371	
O		8.72595465		4.86223694		9.36711512		-0.00017068		-0.00021461		 0.00028227	
O		9.61744381		1.36421505		1.51728521		 0.00017068		 0.00021461		-0.00028227	
O		9.61744381		1.36421505		9.36711512		 0.00017068		 0.00021461		 0.00028227	
O		8.72595465		4.86223694		1.51728521		-0.00017068		-0.00021461		-0.00028227	
O		0.44574458		1.74901003		6.95948538		 0.00017068		-0.00021461		-0.00028227	
O		17.89765388		4.47744196		3.92491496		-0.00017068		 0.00021461		 0.00028227	
O		17.89765388		4.47744196		6.95948538		-0.00017068		 0.00021461		-0.00028227	
O		0.44574458		1.74901003		3.92491496		 0.00017068		-0.00021461		 0.00028227	
O		6.21712804		5.04404937		8.55731461		-0.00008622		-0.00005635		-0.00032276	
O		12.12627042		1.18240262		2.32708572		 0.00008622		 0.00005635		 0.00032276	
O		12.12627042		1.18240262		8.55731461		 0.00008622		 0.00005635		-0.00032276	
O		6.21712804		5.04404937		2.32708572		-0.00008622		-0.00005635		 0.00032276	
O		2.95457119		1.93082245		7.76928405		 0.00008622		-0.00005635		 0.00032276	
O		15.38882727		4.29562954		3.11511445		-0.00008622		 0.00005635		-0.00032276	
O		15.38882727		4.29562954		7.76928405		-0.00008622		 0.00005635		 0.00032276	
O		2.95457119		1.93082245		3.11511445		 0.00008622		-0.00005635		-0.00032276	
O		6.89711782		3.08769840		0.00000000		 0.00031804		 0.00009686		0.00000000	
O		11.44628064		3.13875359		0.00000000		-0.00031804		-0.00009686		0.00000000	
O		2.27458141		6.20092348		5.44220017		-0.00031804		 0.00009686		0.00000000	
O		16.06881705		0.02552851		5.44220017		 0.00031804		-0.00009686		0.00000000	
O		7.54830847		3.04784737		7.82697220		 0.00037435		-0.00058521		-0.00005051	
O		10.79508999		3.17860462		3.05742813		-0.00037435		 0.00058521		 0.00005051	
O		10.79508999		3.17860462		7.82697220		-0.00037435		 0.00058521		-0.00005051	
O		7.54830847		3.04784737		3.05742813		 0.00037435		-0.00058521		 0.00005051	
O		1.62339076		6.16107428		8.49962829		-0.00037435		-0.00058521		 0.00005051	
O		16.72000770		0.06537771		2.38477204		 0.00037435		 0.00058521		-0.00005051	
O		16.72000770		0.06537771		8.49962829		 0.00037435		 0.00058521		 0.00005051	
O		1.62339076		6.16107428		2.38477204		-0.00037435		-0.00058521		-0.00005051	
O		7.29700391		0.65066419		0.00000000		 0.00001179		-0.00023069		-0.00000000	
O		11.04639455		5.57578780		0.00000000		-0.00001179		 0.00023069		-0.00000000	
O		1.87469532		3.76388927		5.44220017		-0.00001179		-0.00023069		0.00000000	
O		16.46870314		2.46256272		5.44220017		 0.00001179		 0.00023069		0.00000000	
O		10.57313487		4.80557601		5.44220017		 0.00035269		 0.00015333		0.00000000	
O		7.77026359		1.42087781		5.44220017		-0.00035269		-0.00015333		0.00000000	
O		16.94196282		1.69234910		0.00000000		-0.00035269		 0.00015333		-0.00000000	
O		1.40143564		4.53410289		0.00000000		 0.00035269		-0.00015333		-0.00000000	
O		12.74132457		3.19167979		5.44220017		-0.00030607		-0.00023429		0.00000000	
O		5.60207389		3.03477220		5.44220017		 0.00030607		 0.00023429		0.00000000	
O		14.77377312		0.07845288		0.00000000		 0.00030607		-0.00023429		-0.00000000	
O		3.56962534		6.14799911		0.00000000		-0.00030607		 0.00023429		-0.00000000	
O		8.14997194		5.23644593		6.85281851		 0.00027888		-0.00025611		 0.00016852	
O		10.19342652		0.99000606		4.03158182		-0.00027888		 0.00025611		-0.00016852	
O		10.19342652		0.99000606		6.85281851		-0.00027888		 0.00025611		 0.00016852	
O		8.14997194		5.23644593		4.03158182		 0.00027888		-0.00025611		-0.00016852	
O		1.02172729		2.12321902		9.47378198		-0.00027888		-0.00025611		-0.00016852	
O		17.32167117		4.10323113		1.41061835		 0.00027888		 0.00025611		 0.00016852	
O		17.32167117		4.10323113		9.47378198		 0.00027888		 0.00025611		-0.00016852	
O		1.02172729		2.12321902		1.41061835		-0.00027888		-0.00025611		 0.00016852	
