# total energy = -24715.7259307 eV	

CRYSTAL	
PRIMVEC	
		9.04464896		0.00000000		-0.00000904	
		0.00000000		8.64349815		0.00000000	
		0.00000000		0.00000000		5.04719659	
PRIMCOORD
   40 1	
O		1.08406711		0.73400835		0.25743432		 0.00009280		 0.00009154		-0.00016092	
O		1.08406439		7.90949252		2.78103533		 0.00010066		-0.00009208		-0.00016052	
O		5.60635995		5.05575833		2.26616307		 0.00021806		 0.00010261		 0.00015538	
O		5.60635633		3.58774344		4.78976317		 0.00022255		-0.00010239		 0.00015491	
O		3.39982264		2.15000559		0.59758996		-0.00012321		-0.00041788		-0.00034780	
O		3.39981993		6.49349889		3.12118915		-0.00011549		 0.00040384		-0.00034484	
O		7.92212995		6.47172032		1.92601286		-0.00003506		-0.00027454		 0.00031729	
O		7.92212633		2.17178416		4.44961386		-0.00003162		 0.00026831		 0.00031603	
O		3.26823831		8.24476890		1.34627492		-0.00001720		-0.00021188		-0.00034026	
O		3.26823560		0.39873287		3.86987593		-0.00001825		 0.00020854		-0.00034266	
O		7.79055465		3.92302073		1.17731523		 0.00000828		-0.00021322		 0.00034901	
O		7.79055194		4.72048285		3.70091533		 0.00000800		 0.00021231		 0.00034963	
O		7.94682359		7.85500001		4.35819884		-0.00024566		 0.00014472		-0.00002541	
O		7.94682449		0.78850267		1.83459874		-0.00024572		-0.00014441		-0.00002565	
O		3.42452261		3.53324912		3.21259242		-0.00034097		 0.00013871		 0.00002792	
O		3.42452442		5.11025174		0.68899232		-0.00034099		-0.00013749		 0.00002811	
O		5.63193941		6.55307765		4.86394533		 0.00039665		 0.00020663		-0.00015472	
O		5.63194032		2.09042412		2.34034433		 0.00039705		-0.00020611		-0.00015420	
O		1.10963030		2.23134574		2.70685859		 0.00033806		 0.00012594		 0.00012747	
O		1.10963301		6.41215422		0.18325849		 0.00033734		-0.00012356		 0.00012638	
O		5.80402931		8.15050660		2.72205043		-0.00019260		 0.00028467		 0.00004255	
O		5.80403021		0.49299517		0.19844943		-0.00019213		-0.00028485		 0.00004274	
O		1.28170754		3.82875842		4.84874625		-0.00021546		 0.00027723		-0.00004455	
O		1.28171025		4.81474154		2.32514615		-0.00021532		-0.00027597		-0.00004554	
Si		2.68703696		0.76703052		0.34020535		 0.00010567		-0.00010430		-0.00033392	
Si		2.68704058		7.87646492		2.86380635		 0.00009147		 0.00012178		-0.00033500	
Si		7.20941568		5.08881847		2.18338300		-0.00011111		-0.00024955		 0.00035131	
Si		7.20941568		3.55468149		4.70698310		-0.00011836		 0.00025658		 0.00035224	
Si		6.33582981		7.85811304		4.28586606		-0.00014971		 0.00006705		-0.00016524	
Si		6.33583071		0.78538873		1.76226505		-0.00014979		-0.00006748		-0.00016630	
Si		1.81346556		3.53634227		3.28492250		 0.00000534		 0.00014396		 0.00019459	
Si		1.81346737		5.10715950		0.76132149		 0.00000580		-0.00014798		 0.00019549	
Mg		9.01289585		0.81622347		3.56151769		-0.00002848		-0.00019739		-0.00012740	
Mg		9.01289947		7.82727920		1.03791759		-0.00002863		 0.00019727		-0.00012701	
Mg		4.49057047		5.13797435		4.00927177		-0.00002255		-0.00021225		 0.00012947	
Mg		4.49057228		3.50552651		1.48567076		-0.00002256		 0.00021171		 0.00012933	
Mg		0.08872772		2.29642654		1.03312963		 0.00016128		 0.00002621		 0.00056095	
Mg		0.08872592		6.34707342		3.55673064		 0.00016059		-0.00002621		 0.00056029	
Mg		4.61104949		6.61818014		1.49046595		 0.00015613		 0.00001212		-0.00055515	
Mg		4.61104678		2.02532163		4.01406605		 0.00015513		-0.00001219		-0.00055397	
