# total energy = -24713.0882658 eV	

CRYSTAL	
PRIMVEC	
		10.02385282		0.00000000		0.00000000	
		0.00000000		10.86604353		0.00000000	
		0.00000000		0.00000000		5.62571064	
PRIMCOORD
   40 1	
O		1.13373279		1.82554890		-0.00369695		-0.00012017		-0.00042299		 0.00075662	
O		1.13373550		9.04049192		2.80916108		-0.00012292		 0.00041628		 0.00075678	
O		6.14574146		7.25846942		2.81655588		-0.00034073		-0.00021368		-0.00075618	
O		6.14573151		3.60756416		5.62941030		-0.00031815		 0.00023229		-0.00075590	
O		3.89046948		1.82412164		-0.00175989		-0.00002203		 0.00040755		-0.00003926	
O		3.89046406		9.04192460		2.81109814		-0.00000172		-0.00042460		-0.00003927	
O		8.90232720		7.25704488		2.81461883		 0.00016743		 0.00059713		 0.00003894	
O		8.90232629		3.60899594		5.62747505		 0.00016664		-0.00059303		 0.00003872	
O		2.51461262		10.85895334		1.39503942		-0.00065402		 0.00023061		 0.00027956	
O		2.51461172		0.00710827		4.20791282		-0.00065395		-0.00027914		 0.00022067	
O		7.52653542		5.42591530		1.41780595		-0.00064698		 0.00026640		-0.00022936	
O		7.52653632		5.44010744		4.23067844		-0.00064700		-0.00022633		-0.00027724	
O		8.89962363		9.04316204		5.62370940		-0.00029452		 0.00004566		-0.00001939	
O		8.89962273		1.82288329		2.81085408		-0.00029723		-0.00005228		-0.00002058	
O		3.88761949		3.61023519		2.81486198		-0.00008756		-0.00014660		 0.00002077	
O		3.88761406		7.25579569		0.00200847		-0.00006783		 0.00016440		 0.00001965	
O		6.14131596		9.04126566		5.62336411		 0.00024509		-0.00020069		 0.00015292	
O		6.14130692		1.82477968		2.81050699		 0.00026497		 0.00018449		 0.00015249	
O		1.12945102		3.60833428		2.81520727		 0.00007717		-0.00036846		-0.00015253	
O		1.12945283		7.25770472		0.00235285		 0.00007549		 0.00037380		-0.00015281	
O		7.51734366		10.86889804		4.21925225		 0.00036730		-0.00027163		-0.00003831	
O		7.51734275		-0.00284909		1.40640145		 0.00036749		 0.00024782		-0.00006381	
O		2.50541635		5.43587086		4.21931281		 0.00035777		-0.00024565		 0.00006287	
O		2.50541725		5.43015730		1.40646743		 0.00035750		 0.00027726		 0.00002721	
Si		2.51188194		0.91162830		-0.00665542		 0.00006281		-0.00000931		-0.00006547	
Si		2.51189008		9.95438359		2.80620352		 0.00004549		 0.00007799		-0.00006612	
Si		7.52379389		6.34489141		2.81951254		 0.00009945		-0.00053075		 0.00007044	
Si		7.52380022		4.52117201		5.63236967		 0.00007930		 0.00047246		 0.00006982	
Si		7.51955008		9.95461227		5.62348704		 0.00012402		-0.00001234		 0.00030888	
Si		7.51955550		0.91141498		2.81062721		 0.00010629		 0.00005317		 0.00031066	
Si		2.50764265		4.52138713		2.81508253		 0.00007723		 0.00040755		-0.00030421	
Si		2.50764898		6.34467086		0.00222540		 0.00006134		-0.00045720		-0.00030223	
Mg		10.02487603		2.71575296		4.21946285		 0.00012191		 0.00028414		-0.00019041	
Mg		10.02487694		8.15028424		1.40660934		 0.00012106		-0.00028305		-0.00019287	
Mg		5.01295324		8.14881540		4.21910853		 0.00015432		-0.00020911		 0.00019170	
Mg		5.01295234		2.71722722		1.40625230		 0.00015305		 0.00020797		 0.00018916	
Mg		0.00593320		2.71675991		1.40664188		 0.00006452		 0.00005057		-0.00023533	
Mg		0.00593681		8.14927910		4.21949991		 0.00006259		-0.00004992		-0.00023400	
Mg		5.01786051		8.14981963		1.40621705		 0.00024753		-0.00044239		 0.00023280	
Mg		5.01785870		2.71622209		4.21907147		 0.00024711		 0.00044164		 0.00023458	
