# total energy = -24716.5496401 eV	

CRYSTAL	
PRIMVEC	
		9.38802849		0.00000000		-0.04007035	
		0.00000000		8.81499023		0.00000000	
		-1.01940637		0.00000000		4.88219770	
PRIMCOORD
   40 1	
Si		2.58615905		0.79861826		1.02641845		-0.00008310		 0.00025782		 0.00024607	
Si		5.78246124		8.01637105		3.81570889		 0.00008289		-0.00025835		-0.00024629	
Si		6.29216350		0.79861826		1.37461096		 0.00008368		 0.00025695		-0.00024561	
Si		2.07645587		8.01637105		3.46751638		-0.00008371		-0.00025714		 0.00024563	
Si		7.28018158		5.20611797		1.00638879		-0.00012051		 0.00023616		 0.00022857	
Si		1.08843779		3.60887042		3.83573855		 0.00012074		-0.00023578		-0.00022839	
Si		1.59814097		5.20611797		1.39464154		 0.00012048		 0.00023599		-0.00022859	
Si		6.77047839		3.60887042		3.44748672		-0.00012151		-0.00023459		 0.00022783	
Mg		-0.25485113		7.97294509		1.22054942		-0.00000002		-0.00003762		 0.00000003	
Mg		-0.76455432		0.84204330		3.66164643		 0.00000004		 0.00003745		-0.00000004	
Mg		4.43916128		3.56545090		1.20051517		0.00000000		-0.00003481		 0.00000004	
Mg		3.92945809		5.24953841		3.64161217		 0.00000009		 0.00003479		0.00000000	
Mg		-0.25485113		2.40237828		1.22054942		 0.00000002		 0.00007968		 0.00000001	
Mg		-0.76455432		6.41261103		3.66164735		-0.00000003		-0.00007965		-0.00000001	
Mg		4.43916128		6.80987339		1.20051517		 0.00000005		 0.00007543		 0.00000001	
Mg		3.92945809		2.00511591		3.64161217		-0.00000003		-0.00007541		-0.00000003	
O		0.99826523		0.80368893		0.67991524		-0.00003238		 0.00011494		-0.00018193	
O		7.37035414		8.01130038		4.16221210		 0.00003243		-0.00011478		 0.00018194	
O		7.88005732		0.80368893		1.72111417		 0.00003203		 0.00011493		 0.00018185	
O		0.48856205		8.01130038		3.12101317		-0.00003198		-0.00011485		-0.00018180	
O		5.69227212		5.21118220		0.65988006		-0.00000963		 0.00011662		-0.00017671	
O		2.67634725		3.60380619		4.18224728		 0.00000940		-0.00011666		 0.00017665	
O		3.18605043		5.21118220		1.74115027		 0.00000952		 0.00011662		 0.00017666	
O		5.18256893		3.60380619		3.10097799		-0.00000902		-0.00011672		-0.00017654	
O		3.17876784		2.07015594		1.78328717		 0.00006859		 0.00011327		 0.00006000	
O		5.18985152		6.74483245		3.05884109		-0.00006845		-0.00011286		-0.00005989	
O		5.69955471		2.07015594		0.61774316		-0.00006895		 0.00011380		-0.00006047	
O		2.66906466		6.74483337		4.22438418		 0.00006889		-0.00011371		 0.00006043	
O		7.87277657		6.47764461		1.76324923		 0.00008263		 0.00013481		 0.00007186	
O		0.49584280		2.33734469		3.07887811		-0.00008277		-0.00013503		-0.00007193	
O		1.00554598		6.47764461		0.63778018		-0.00008262		 0.00013489		-0.00007191	
O		7.36307338		2.33734469		4.20434716		 0.00008318		-0.00013592		 0.00007250	
O		2.39238231		0.52911177		4.46161908		 0.00010970		-0.00017264		 0.00021829	
O		5.97623797		8.28587662		0.38050827		-0.00010968		 0.00017278		-0.00021820	
O		5.46653387		0.52911177		2.82160527		-0.00010968		-0.00017240		-0.00021844	
O		2.90208550		8.28587662		2.02052207		 0.00010971		 0.00017249		 0.00021840	
O		7.08639288		4.93660597		4.44158482		 0.00011533		-0.00017074		 0.00021955	
O		1.28222649		3.87838334		0.40054252		-0.00011534		 0.00017050		-0.00021969	
O		0.77252330		4.93660597		2.84164045		-0.00011531		-0.00017052		-0.00021966	
O		7.59609698		3.87838334		2.00048689		 0.00011532		 0.00017030		 0.00021983	
