# total energy = -24716.3049757 eV	

CRYSTAL	
PRIMVEC	
		10.21302694		0.00000000		-0.95476934	
		0.00000920		9.03786605		0.00000000	
		-1.60746067		0.00000000		5.16148484	
PRIMCOORD
   40 1	
Si		2.50702309		0.80142732		1.25388557		-0.00001219		-0.00020679		-0.00022424	
Si		6.09854686		8.23643872		2.95282625		 0.00001122		 0.00022309		 0.00022756	
Si		6.90227719		0.80143560		0.37208383		 0.00000650		-0.00022378		 0.00023153	
Si		1.70329276		8.23642952		3.83463167		-0.00000733		 0.00024171		-0.00023500	
Si		7.61360005		5.32040727		0.77645121		-0.00011188		-0.00014716		-0.00029907	
Si		0.99196715		3.71746798		3.43026429		 0.00011679		 0.00013221		 0.00029551	
Si		1.79570576		5.32041279		0.84951727		 0.00010535		-0.00016419		 0.00030621	
Si		6.80986695		3.71746246		3.35719455		-0.00011150		 0.00015037		-0.00030277	
Mg		-0.40186103		8.08719575		1.29036937		-0.00000080		-0.00104328		-0.00000013	
Mg		-1.20559688		0.95066754		3.87111363		 0.00000094		 0.00104623		 0.00000020	
Mg		4.70465060		3.56820844		0.81298562		-0.00000077		-0.00097955		-0.00000009	
Mg		3.90091935		5.46966221		3.39372896		 0.00000090		 0.00097656		 0.00000013	
Mg		-0.40186471		2.32245104		1.29037121		 0.00000153		 0.00015551		 0.00000138	
Mg		-1.20559320		6.71541501		3.87111271		-0.00000146		-0.00015516		-0.00000129	
Mg		4.70465152		6.84169045		0.81298562		 0.00000151		 0.00003900		 0.00000137	
Mg		3.90091843		2.19617927		3.39372804		-0.00000145		-0.00003905		-0.00000126	
O		0.95664543		0.84773963		0.72421253		-0.00007552		 0.00042342		 0.00000864	
O		7.64892360		8.19013193		3.48250021		 0.00007564		-0.00042576		-0.00000892	
O		8.45265118		0.84774147		0.90176146		 0.00007612		 0.00042438		-0.00000956	
O		0.15291878		8.19012917		3.30495311		-0.00007562		-0.00042677		 0.00001000	
O		6.06315338		5.36681895		0.24673861		 0.00001481		 0.00040628		 0.00005559	
O		2.54241750		3.67104985		3.95997505		-0.00001709		-0.00040344		-0.00005568	
O		3.34614783		5.36681803		1.37923447		-0.00001394		 0.00040725		-0.00005646	
O		5.25942120		3.67105077		2.82748011		 0.00001654		-0.00040450		 0.00005663	
O		3.32324378		2.18169782		1.43649413		 0.00007410		 0.00042681		 0.00018023	
O		5.28232525		6.85617559		2.77021953		-0.00007735		-0.00043254		-0.00018155	
O		6.08605466		2.18169874		0.18947803		-0.00007519		 0.00043072		-0.00018188	
O		2.51951529		6.85617559		4.01723655		 0.00007931		-0.00043790		 0.00018323	
O		8.42969744		6.70081578		0.95906805		 0.00007363		 0.00034835		 0.00022657	
O		0.17587251		2.33705210		3.24764561		-0.00007189		-0.00034475		-0.00022519	
O		0.97960652		6.70081394		0.66690319		-0.00007441		 0.00035184		-0.00022820	
O		7.62596343		2.33705578		3.53981139		 0.00007322		-0.00034929		 0.00022691	
O		1.74163792		-0.23505334		5.41605626		 0.00003207		-0.00005479		-0.00004562	
O		6.86393019		9.27293043		-1.20933893		-0.00002721		 0.00004503		 0.00003528	
O		6.06019157		-0.23505702		1.37140626		-0.00002531		-0.00004332		 0.00003217	
O		2.54538114		9.27293135		2.83530280		 0.00002063		 0.00003374		-0.00002202	
O		6.84823972		4.28414651		4.93843973		 0.00004898		-0.00008600		-0.00002911	
O		1.75733299		4.75371953		-0.73172883		-0.00005407		 0.00009571		 0.00003952	
O		0.95359346		4.28414283		1.84902279		-0.00004198		-0.00007440		 0.00001523	
O		7.65197374		4.75372414		2.35769546		 0.00004720		 0.00008419		-0.00002583	
