# total energy = -24713.8874598 eV	

CRYSTAL	
PRIMVEC	
		10.85919475		0.00002760		-1.24216257	
		0.00001840		10.73406115		0.00001840	
		-1.80588943		0.00000920		5.21436299	
PRIMCOORD
   40 1	
Si		2.26423723		0.91414325		0.99243272		-0.00009622		-0.00033551		-0.00008505	
Si		6.78916378		9.82017737		2.97977506		-0.00011186		-0.00024698		 0.00009273	
Si		7.69196772		0.91390678		0.37260921		 0.00022811		 0.00029465		 0.00006495	
Si		1.36129344		9.82037151		3.59963169		-0.00002339		-0.00077255		-0.00006543	
Si		7.69386405		6.28107906		0.37129530		-0.00011700		 0.00003735		 0.00002307	
Si		1.35957745		4.45291585		3.60090143		-0.00014915		 0.00028408		 0.00000120	
Si		2.26236759		6.28082143		0.99376686		 0.00024014		 0.00064379		-0.00004108	
Si		6.79086229		4.45310723		2.97848324		 0.00000587		-0.00017890		 0.00002915	
Mg		-0.45147282		8.22783855		1.30360317		 0.00005148		-0.00012980		 0.00002687	
Mg		-1.35439269		2.50619776		3.91078282		-0.00005449		 0.00014539		-0.00002312	
Mg		4.97811260		2.86076105		0.68251360		 0.00005425		-0.00007855		 0.00002271	
Mg		4.07521757		7.87337371		3.28971074		-0.00005418		 0.00008107		-0.00001849	
Mg		-0.45144613		2.85781305		1.30359857		-0.00005629		 0.00018948		-0.00001540	
Mg		-1.35442213		7.87621314		3.91079110		 0.00005680		-0.00014985		 0.00001178	
Mg		4.97816228		8.22492735		0.68252924		-0.00005241		 0.00001821		-0.00001996	
Mg		4.07516604		2.50921017		3.28969786		 0.00005616		-0.00004102		 0.00001597	
O		0.99857254		1.81382529		0.47122644		 0.00046757		-0.00037384		-0.00043913	
O		8.05472726		8.92027819		3.50102458		-0.00044591		 0.00040112		 0.00041850	
O		8.95771338		1.81388141		0.89380444		-0.00053446		-0.00044846		 0.00041402	
O		0.09566555		8.92024415		3.07839782		 0.00046540		 0.00042990		-0.00040851	
O		6.42823433		7.18096168		-0.14986036		 0.00047254		-0.00041292		-0.00042207	
O		2.62506456		3.55318321		4.12206722		-0.00031909		 0.00028219		 0.00047258	
O		3.52807736		7.18098836		1.51491241		-0.00054443		-0.00049089		 0.00039663	
O		5.52530985		3.55317492		2.45733401		 0.00033093		 0.00030635		-0.00046582	
O		3.52769184		1.81623595		1.51469803		-0.00030223		-0.00039826		 0.00038564	
O		5.52558865		8.91776080		2.45751987		 0.00051497		 0.00059670		-0.00031870	
O		6.42859408		1.81624699		-0.14967450		 0.00024964		-0.00039619		-0.00038021	
O		2.62477473		8.91778288		4.12190712		-0.00041459		 0.00054667		 0.00033042	
O		8.95732325		7.18332081		0.89359742		-0.00036191		-0.00047126		 0.00037776	
O		0.09595723		3.55079371		3.07863612		 0.00043793		 0.00047509		-0.00037047	
O		0.99897279		7.18329229		0.47144727		 0.00031968		-0.00047444		-0.00037001	
O		8.05437394		3.55083327		3.50076971		-0.00032566		 0.00041887		 0.00038719	
O		0.91039016		0.00081613		4.90238009		-0.00014314		 0.00061919		 0.00075305	
O		8.14300441		10.73315117		-0.93026432		-0.00001497		-0.00024612		-0.00033216	
O		7.24010938		0.00102683		1.67680492		-0.00010120		 0.00011256		-0.00011255	
O		1.81315454		10.73293955		2.29553811		 0.00026176		 0.00026738		-0.00031727	
O		6.33987805		5.36799300		4.28142026		 0.00002665		 0.00020890		 0.00028899	
O		2.71342176		5.36619513		-0.30912875		 0.00007575		-0.00046876		-0.00056264	
O		1.81063162		5.36815678		2.29780340		-0.00024752		-0.00025405		 0.00029395	
O		7.24272615		5.36602307		1.67436389		 0.00015447		 0.00000937		-0.00003906	
