# total energy = -20637.7619838 eV	

CRYSTAL	
PRIMVEC	
		4.90232829		0.00038443		0.00000000	
		0.00080682		10.75468709		0.00000000	
		0.00000000		0.00000000		6.22471096	
PRIMCOORD
   28 1	
Si		2.07941663		0.99754746		1.55617774		 0.00034836		 0.00015243		 0.00000027	
Si		2.82371849		9.75752358		4.66853322		-0.00034805		-0.00015230		-0.00000026	
Si		4.53062870		4.38022085		4.66853275		 0.00036143		-0.00021759		-0.00000030	
Si		0.37250641		6.37484972		1.55617774		-0.00036201		 0.00021823		 0.00000036	
Mg		0.00000000		0.00000000		0.00000000		-0.00000008		 0.00000001		-0.00000001	
Mg		2.45156756		5.37753576		0.00000000		 0.00000011		-0.00000020		0.00000000	
Mg		0.00000000		0.00000000		3.11235548		-0.00000005		 0.00000010		 0.00000006	
Mg		2.45156756		5.37753576		3.11235548		 0.00000001		-0.00000003		0.00000000	
Mg		4.88966691		3.00992874		1.55617727		-0.00010128		 0.00002144		 0.00022200	
Mg		0.01346820		7.74514326		4.66853322		 0.00010113		-0.00002151		-0.00022194	
Mg		2.43659630		2.36826529		4.66853322		 0.00013495		 0.00036858		-0.00019686	
Mg		2.46653834		8.38680717		1.55617727		-0.00013480		-0.00036872		 0.00019690	
O		3.72627618		0.96693813		1.55617774		 0.00051820		-0.00007627		 0.00002094	
O		1.17685893		9.78813338		4.66853322		-0.00051830		 0.00007616		-0.00002099	
O		1.27526296		4.40974619		4.66853275		 0.00052999		 0.00016173		-0.00002095	
O		3.62787215		6.34532580		1.55617774		-0.00052959		-0.00016195		 0.00002103	
O		1.09569948		4.84909858		1.55617822		 0.00007666		 0.00050920		 0.00002082	
O		3.80743515		5.90597246		4.66853275		-0.00007645		-0.00050921		-0.00002087	
O		3.54620868		0.52838972		4.66853275		 0.00007140		-0.00037042		-0.00002105	
O		1.35692738		10.22668085		1.55617774		-0.00007155		 0.00037095		 0.00002106	
O		1.37860331		1.72742433		0.23154784		-0.00011356		-0.00018257		-0.00006104	
O		3.52453180		9.02764671		5.99316217		 0.00011341		 0.00018250		 0.00006135	
O		3.83002137		3.65068570		5.99339947		-0.00013001		 0.00019252		 0.00005067	
O		1.07311374		7.10438487		0.23131054		 0.00013011		-0.00019261		-0.00005039	
O		3.52453180		9.02764671		3.34390332		 0.00011367		 0.00018276		-0.00009348	
O		1.37860331		1.72742480		2.88080717		-0.00011364		-0.00018298		 0.00009318	
O		1.07311374		7.10438535		2.88104447		 0.00013009		-0.00019339		 0.00008212	
O		3.83002089		3.65068570		3.34366602		-0.00013015		 0.00019315		-0.00008260	
