# total energy = -10313.8696061 eV	

CRYSTAL	
PRIMVEC	
		3.51000011		0.14039986		0.00000000	
		0.14039986		3.51000011		0.00000000	
		0.00000000		0.00000000		10.44999967	
PRIMCOORD
   14 1	
Si		0.00000000		0.00000000		0.00000000		0.00000000		0.00000000		0.00000000	
Si		1.82519999		1.82519999		5.22499983		0.00000000		0.00000000		0.00000000	
Mg		0.00000000		0.00000000		3.90830007		0.00000000		0.00000000		-0.00050118	
Mg		0.00000000		0.00000000		6.54169995		0.00000000		0.00000000		 0.00050118	
Mg		1.82519999		1.82519999		9.13329990		0.00000000		0.00000000		-0.00036488	
Mg		1.82519999		1.82519999		1.31670012		0.00000000		0.00000000		 0.00036488	
O		0.07019993		1.75500006		0.00000000		0.00000000		0.00000000		0.00000000	
O		1.75500006		0.07019993		0.00000000		0.00000000		0.00000000		0.00000000	
O		1.75500006		0.07019993		5.22499983		0.00000000		0.00000000		0.00000000	
O		0.07019993		1.75500006		5.22499983		0.00000000		0.00000000		0.00000000	
O		0.00000000		0.00000000		1.72111482		0.00000000		0.00000000		-0.00067157	
O		0.00000000		0.00000000		8.72888485		0.00000000		0.00000000		 0.00067157	
O		1.82519999		1.82519999		6.94611500		0.00000000		0.00000000		-0.00052655	
O		1.82519999		1.82519999		3.50388502		0.00000000		0.00000000		 0.00052655	
