# total energy = -10311.0891716 eV	

CRYSTAL	
PRIMVEC	
		3.51000042		-0.42119920		0.00000000	
		-0.42119920		3.51000042		0.00000000	
		0.00000000		0.00000000		10.45000009	
PRIMCOORD
   14 1	
Si		0.00000000		0.00000000		0.00000000		0.00000000		0.00000000		0.00000000	
Si		1.54439990		1.54439990		5.22499969		0.00000000		0.00000000		0.00000000	
Mg		0.00000000		0.00000000		3.90829977		0.00000000		0.00000000		-0.00032040	
Mg		0.00000000		0.00000000		6.54169961		0.00000000		0.00000000		 0.00032040	
Mg		1.54439990		1.54439990		9.13329946		0.00000000		0.00000000		-0.00032075	
Mg		1.54439990		1.54439990		1.31669992		0.00000000		0.00000000		 0.00032075	
O		-0.21059995		1.75499985		0.00000000		0.00000000		0.00000000		0.00000000	
O		1.75499985		-0.21059995		0.00000000		0.00000000		0.00000000		0.00000000	
O		1.75499985		-0.21059995		5.22499969		0.00000000		0.00000000		0.00000000	
O		-0.21059995		1.75499985		5.22499969		0.00000000		0.00000000		0.00000000	
O		0.00000000		0.00000000		1.72111479		0.00000000		0.00000000		-0.00052759	
O		0.00000000		0.00000000		8.72888460		0.00000000		0.00000000		 0.00052759	
O		1.54439990		1.54439990		6.94611483		0.00000000		0.00000000		-0.00050092	
O		1.54439990		1.54439990		3.50388491		0.00000000		0.00000000		 0.00050092	
