# total energy = -13384.5387335 eV	

CRYSTAL	
PRIMVEC	
		3.00895438		0.00000000		0.00000000	
		-1.50447872		2.60583015		0.00000000	
		0.00000000		0.00000000		18.79477182	
PRIMCOORD
   18 1	
O		0.00000000		0.00000000		5.84810029		-0.00000005		 0.00000002		 0.00033125	
O		0.00000000		0.00000000		12.94667611		-0.00000005		-0.00000005		-0.00034330	
O		1.50447719		0.86861025		8.12051994		 0.00000006		-0.00000001		 0.00044598	
O		0.00000000		1.73722020		10.67406106		 0.00000002		 0.00000004		 0.00030206	
O		1.50447719		0.86861025		1.18014082		 0.00000004		-0.00000001		-0.00040365	
O		0.00000000		1.73722020		17.61473999		-0.00000004		 0.00000003		-0.00001623	
O		0.00000000		1.73722051		3.44571107		-0.00000002		 0.00000003		-0.00002696	
O		1.50447689		0.86861025		15.34906411		 0.00000008		-0.00000010		 0.00001513	
H		1.50447750		0.86860995		9.08215816		-0.00000000		0.00000000		-0.00072746	
H		0.00000000		1.73722020		9.71278798		0.00000000		0.00000000		 0.00005784	
H		1.50447750		0.86861025		0.21546120		0.00000000		-0.00000001		 0.00006550	
H		0.00000000		1.73722020		18.57921811		-0.00000001		 0.00000002		 0.00029954	
Mg		0.00000000		1.73722081		7.05559752		0.00000000		-0.00000003		-0.00005315	
Mg		1.50447719		0.86860995		11.73919598		-0.00000002		 0.00000001		-0.00002147	
Mg		0.00000000		0.00000000		2.23914867		-0.00000002		-0.00000001		 0.00009907	
Mg		0.00000000		0.00000000		16.55560636		 0.00000001		 0.00000003		-0.00003624	
Mg		1.50447750		0.86860995		4.64667731		-0.00000001		 0.00000002		 0.00011726	
Mg		0.00000000		1.73722051		14.14809176		-0.00000000		 0.00000003		-0.00010515	
