# total energy = -13384.2803247 eV	

CRYSTAL	
PRIMVEC	
		2.97524621		0.00000000		0.00000000	
		-1.48762310		2.57664042		0.00000000	
		0.00000000		0.00000000		18.49251871	
PRIMCOORD
   18 1	
O		0.00000000		0.00000000		5.76785341		0.00000000		 0.00000004		 0.00011284	
O		0.00000000		0.00000000		12.72466012		-0.00000003		 0.00000001		-0.00010009	
O		1.48762371		0.85887973		8.02724438		 0.00000001		-0.00000002		-0.00032050	
O		0.00000000		1.71775916		10.46545171		 0.00000001		 0.00000002		-0.00036729	
O		1.48762341		0.85887973		1.13379048		 0.00000002		-0.00000000		-0.00014404	
O		0.00000000		1.71775916		17.35860886		0.00000000		 0.00000005		 0.00060641	
O		0.00000000		1.71775947		3.38649722		-0.00000001		-0.00000002		-0.00002930	
O		1.48762341		0.85887973		15.10601814		 0.00000001		-0.00000009		 0.00003564	
H		1.48762341		0.85887943		8.98759759		-0.00000000		-0.00000000		 0.00022150	
H		0.00000000		1.71775916		9.50476847		0.00000000		-0.00000000		 0.00038971	
H		1.48762341		0.85887943		0.16943936		-0.00000000		0.00000000		 0.00002478	
H		0.00000000		1.71775916		18.32318223		0.00000000		 0.00000001		-0.00042951	
Mg		0.00000000		1.71775947		6.96345065		-0.00000000		-0.00000001		 0.00030953	
Mg		1.48762341		0.85887943		11.52905738		-0.00000001		 0.00000001		-0.00024050	
Mg		0.00000000		0.00000000		2.19097722		-0.00000001		-0.00000001		 0.00005872	
Mg		0.00000000		0.00000000		16.30154852		0.00000000		 0.00000001		-0.00012007	
Mg		1.48762371		0.85887943		4.57695534		-0.00000000		 0.00000001		 0.00039635	
Mg		0.00000000		1.71775947		13.91556245		0.00000000		 0.00000002		-0.00040418	
