# total energy = -13383.6094422 eV	

CRYSTAL	
PRIMVEC	
		3.35829980		0.00000000		0.00000000	
		-1.67914990		2.64397600		0.00000000	
		0.00000000		0.00000000		20.12499777	
PRIMCOORD
   18 1	
O		0.00000000		0.00000000		6.26491265		0.00000000		 0.00032092		-0.00014650	
O		0.00000000		0.00000000		13.86008613		0.00000000		-0.00032092		 0.00014650	
O		1.67914990		0.88132500		8.61752457		0.00000000		-0.00005766		 0.00034576	
O		0.00000000		1.76265000		11.50747420		0.00000000		 0.00005766		-0.00034576	
O		1.67914990		0.88132500		1.44497498		0.00000000		 0.00005237		-0.00073047	
O		0.00000000		1.76265000		18.68002379		0.00000000		-0.00005237		 0.00073047	
O		0.00000000		1.76265000		3.79758792		0.00000000		-0.00015648		-0.00035144	
O		1.67914990		0.88132500		16.32741119		0.00000000		 0.00015648		 0.00035144	
H		1.67914990		0.88132500		9.60767427		-0.00000000		 0.00039033		-0.00044766	
H		0.00000000		1.76265000		10.51732451		-0.00000000		-0.00039033		 0.00044766	
H		1.67914990		0.88132500		0.45482495		0.00000000		-0.00008495		-0.00005658	
H		0.00000000		1.76265000		19.67017382		0.00000000		 0.00008495		 0.00005658	
Mg		0.00000000		1.76265000		7.50461256		0.00000000		-0.00018602		-0.00069631	
Mg		1.67914990		0.88132500		12.62038621		0.00000000		 0.00018602		 0.00069631	
Mg		0.00000000		0.00000000		2.55788800		0.00000000		 0.00006284		 0.00033903	
Mg		0.00000000		0.00000000		17.56711212		0.00000000		-0.00006284		-0.00033903	
Mg		1.67914990		0.88132500		5.03326157		0.00000000		 0.00010657		-0.00033602	
Mg		0.00000000		1.76265000		15.09173620		0.00000000		-0.00010657		 0.00033602	
