# total energy = -13383.9744995 eV	

CRYSTAL	
PRIMVEC	
		3.28197499		0.00000000		0.00000000	
		-1.64098749		2.64397546		0.00000000	
		0.00000000		0.00000000		20.12499841	
PRIMCOORD
   18 1	
O		0.00000000		0.00000000		6.26491282		0.00000000		 0.00040632		-0.00019201	
O		0.00000000		0.00000000		13.86008690		0.00000000		-0.00040632		 0.00019201	
O		1.64098815		0.88132515		8.61752504		0.00000000		-0.00011410		 0.00008911	
O		0.00000000		1.76264998		11.50747501		0.00000000		 0.00011410		-0.00008911	
O		1.64098815		0.88132515		1.44497515		0.00000000		-0.00006186		-0.00039942	
O		0.00000000		1.76264998		18.68002491		-0.00000000		 0.00006186		 0.00039942	
O		0.00000000		1.76264998		3.79758803		0.00000000		-0.00024306		-0.00035671	
O		1.64098684		0.88132515		16.32741203		0.00000000		 0.00024306		 0.00035671	
H		1.64098815		0.88132515		9.60767491		0.00000000		 0.00051409		-0.00031527	
H		0.00000000		1.76264998		10.51732482		0.00000000		-0.00051409		 0.00031527	
H		1.64098815		0.88132515		0.45482495		0.00000000		-0.00018782		-0.00021582	
H		0.00000000		1.76264998		19.67017477		0.00000000		 0.00018782		 0.00021582	
Mg		0.00000000		1.76264998		7.50461291		0.00000000		-0.00017045		-0.00053118	
Mg		1.64098684		0.88132515		12.62038682		0.00000000		 0.00017045		 0.00053118	
Mg		0.00000000		0.00000000		2.55788794		-0.00000000		 0.00010500		 0.00023215	
Mg		0.00000000		0.00000000		17.56711277		0.00000000		-0.00010500		-0.00023215	
Mg		1.64098815		0.88132515		5.03326211		0.00000000		 0.00012712		-0.00031871	
Mg		0.00000000		1.76264998		15.09173696		0.00000000		-0.00012712		 0.00031871	
