# total energy = -66810.3214187 eV

CRYSTAL
PRIMVEC
		18.34339846		0.00000000		0.00000000
		0.00000000		6.73129350		0.00000000
		0.00000000		0.00000000		11.97284624
PRIMECORD
   112 1
Ca		14.17192622		6.72409738		2.77267071		-0.00007117		 0.00003806		-0.00049117
Ca		4.17147224		0.00720345		9.20017002		 0.00007117		-0.00003806		 0.00049117
Ca		4.17147224		0.00720345		2.77267071		 0.00007117		-0.00003806		-0.00049117
Ca		14.17192622		6.72409738		9.20017002		-0.00007117		 0.00003806		 0.00049117
Ca		13.34317147		3.35844697		3.21375057		 0.00007117		 0.00003806		 0.00049117
Ca		5.00022699		3.37285204		8.75909016		-0.00007117		-0.00003806		-0.00049117
Ca		5.00022699		3.37285204		3.21375057		-0.00007117		-0.00003806		 0.00049117
Ca		13.34317147		3.35844697		8.75909016		 0.00007117		 0.00003806		-0.00049117
Ca		7.55546239		1.06468937		8.96334757		 0.00017403		 0.00076052		-0.00049950
Ca		10.78793607		5.66660963		3.00949316		-0.00017403		-0.00076052		 0.00049950
Ca		10.78793607		5.66660963		8.96334757		-0.00017403		-0.00076052		-0.00049950
Ca		7.55546239		1.06468937		3.00949316		 0.00017403		 0.00076052		 0.00049950
Ca		1.61623684		4.43033979		8.99591261		-0.00017403		 0.00076052		 0.00049950
Ca		16.72716162		2.30095922		2.97692629		 0.00017403		-0.00076052		-0.00049950
Ca		16.72716162		2.30095922		8.99591261		 0.00017403		-0.00076052		 0.00049950
Ca		1.61623684		4.43033979		2.97692629		-0.00017403		 0.00076052		-0.00049950
Ca		6.10413271		5.40388814		0.00000000		-0.00087619		 0.00070156		0.00000000
Ca		12.23926575		1.32741269		0.00000000		 0.00087619		-0.00070156		0.00000000
Ca		3.06756652		2.03823773		5.98641945		 0.00087619		 0.00070156		0.00000000
Ca		15.27583194		4.69306128		5.98641945		-0.00087619		-0.00070156		0.00000000
Ca		12.35024332		1.15643754		5.98641945		 0.00007399		 0.00074317		0.00000000
Ca		5.99315515		5.57486146		5.98641945		-0.00007399		-0.00074317		0.00000000
Ca		15.16485438		4.52208613		0.00000000		-0.00007399		 0.00074317		0.00000000
Ca		3.17854409		2.20921287		0.00000000		 0.00007399		-0.00074317		-0.00000000
Ca		9.17169923		3.36565042		0.00000000		0.00000000		0.00000000		0.00000000
Ca		0.00000000		0.00000000		5.98641945		0.00000000		0.00000000		0.00000000
Ca		9.17169923		3.36565042		5.98641945		0.00000000		0.00000000		0.00000000
Ca		0.00000000		0.00000000		0.00000000		0.00000000		0.00000000		0.00000000
Si		7.68918577		4.84249761		9.00094237		 0.00008507		-0.00052230		-0.00002311
Si		10.65421086		1.88880323		2.97189836		-0.00008507		 0.00052230		 0.00002311
Si		10.65421086		1.88880323		9.00094237		-0.00008507		 0.00052230		-0.00002311
Si		7.68918577		4.84249761		2.97189836		 0.00008507		-0.00052230		 0.00002311
Si		1.48251346		1.47684719		8.95831965		-0.00008507		-0.00052230		 0.00002311
Si		16.86088500		5.25445365		3.01452108		 0.00008507		 0.00052230		-0.00002311
Si		16.86088500		5.25445365		8.95831965		 0.00008507		 0.00052230		 0.00002311
Si		1.48251346		1.47684719		3.01452108		-0.00008507		-0.00052230		-0.00002311
Si		12.17689820		4.95087040		5.98641945		 0.00040331		-0.00012683		-0.00000000
Si		6.16650026		1.78042860		5.98641945		-0.00040331		 0.00012683		-0.00000000
Si		15.33819949		1.58522182		0.00000000		-0.00040331		-0.00012683		0.00000000
Si		3.00519897		5.14607902		0.00000000		 0.00040331		 0.00012683		0.00000000
Si		6.20337049		1.90361186		0.00000000		 0.00092166		 0.00014437		0.00000000
Si		12.14002797		4.82768898		0.00000000		-0.00092166		-0.00014437		0.00000000
Si		2.96832874		5.26926044		5.98641945		-0.00092166		 0.00014437		0.00000000
Si		15.37506972		1.46203856		5.98641945		 0.00092166		-0.00014437		0.00000000
Mg		9.17169923		0.00000000		5.98641945		0.00000000		0.00000000		-0.00000000
Mg		0.00000000		3.36565042		0.00000000		0.00000000		0.00000000		0.00000000
Mg		9.17169923		0.00000000		0.00000000		0.00000000		0.00000000		0.00000000
Mg		0.00000000		3.36565042		5.98641945		0.00000000		0.00000000		0.00000000
O		5.29573914		1.72994390		1.46068665		 0.00023483		-0.00063018		-0.00026308
O		13.04765933		5.00135511		10.51215408		-0.00023483		 0.00063018		 0.00026308
O		13.04765933		5.00135511		1.46068665		-0.00023483		 0.00063018		-0.00026308
O		5.29573914		1.72994390		10.51215408		 0.00023483		-0.00063018		 0.00026308
O		3.87596009		5.09559432		4.52573463		-0.00023483		-0.00063018		 0.00026308
O		14.46743837		1.63570652		7.44710610		 0.00023483		 0.00063018		-0.00026308
O		14.46743837		1.63570652		4.52573463		 0.00023483		 0.00063018		 0.00026308
O		3.87596009		5.09559432		7.44710610		-0.00023483		-0.00063018		-0.00026308
O		12.78168005		5.70410354		4.55327174		-0.00028025		 0.00004153		-0.00039939
O		5.56171841		1.02719546		7.41956899		 0.00028025		-0.00004153		 0.00039939
O		5.56171841		1.02719546		4.55327174		 0.00028025		-0.00004153		-0.00039939
O		12.78168005		5.70410354		7.41956899		-0.00028025		 0.00004153		 0.00039939
O		14.73341764		2.33845312		1.43314954		 0.00028025		 0.00004153		 0.00039939
O		3.60998082		4.39284588		10.53969119		-0.00028025		-0.00004153		-0.00039939
O		3.60998082		4.39284588		1.43314954		-0.00028025		-0.00004153		 0.00039939
O		14.73341764		2.33845312		10.53969119		 0.00028025		 0.00004153		-0.00039939
O		8.72595465		5.25647142		10.30382627		-0.00021271		-0.00002712		 0.00005252
O		9.61744381		1.47482758		1.66901446		 0.00021271		 0.00002712		-0.00005252
O		9.61744381		1.47482758		10.30382627		 0.00021271		 0.00002712		 0.00005252
O		8.72595465		5.25647142		1.66901446		-0.00021271		-0.00002712		-0.00005252
O		0.44574458		1.89082284		7.65543391		 0.00021271		-0.00002712		-0.00005252
O		17.89765388		4.84047800		4.31740498		-0.00021271		 0.00002712		 0.00005252
O		17.89765388		4.84047800		7.65543391		-0.00021271		 0.00002712		-0.00005252
O		0.44574458		1.89082284		4.31740498		 0.00021271		-0.00002712		 0.00005252
O		6.21712804		5.45302644		9.41304699		 0.00048224		-0.00036036		-0.00029006
O		12.12627042		1.27827440		2.55979374		-0.00048224		 0.00036036		 0.00029006
O		12.12627042		1.27827440		9.41304699		-0.00048224		 0.00036036		-0.00029006
O		6.21712804		5.45302644		2.55979374		 0.00048224		-0.00036036		 0.00029006
O		2.95457119		2.08737602		8.54621319		-0.00048224		-0.00036036		 0.00029006
O		15.38882727		4.64392298		3.42662754		 0.00048224		 0.00036036		-0.00029006
O		15.38882727		4.64392298		8.54621319		 0.00048224		 0.00036036		 0.00029006
O		2.95457119		2.08737602		3.42662754		-0.00048224		-0.00036036		-0.00029006
O		6.89711782		3.33805278		0.00000000		 0.00049249		 0.00039585		0.00000000
O		11.44628064		3.39324806		0.00000000		-0.00049249		-0.00039585		0.00000000
O		2.27458141		6.70370136		5.98641945		-0.00049249		 0.00039585		-0.00000000
O		16.06881705		0.02759764		5.98641945		 0.00049249		-0.00039585		-0.00000000
O		7.54830847		3.29497147		8.60967034		-0.00033250		-0.00067778		 0.00032679
O		10.79508999		3.43632937		3.36317039		 0.00033250		 0.00067778		-0.00032679
O		10.79508999		3.43632937		8.60967034		 0.00033250		 0.00067778		 0.00032679
O		7.54830847		3.29497147		3.36317039		-0.00033250		-0.00067778		-0.00032679
O		1.62339076		6.66062005		9.34958984		 0.00033250		-0.00067778		-0.00032679
O		16.72000770		0.07067895		2.62324906		-0.00033250		 0.00067778		 0.00032679
O		16.72000770		0.07067895		9.34958984		-0.00033250		 0.00067778		-0.00032679
O		1.62339076		6.66062005		2.62324906		 0.00033250		-0.00067778		 0.00032679
O		7.29700391		0.70342164		0.00000000		 0.00051994		-0.00011041		-0.00000000
O		11.04639455		6.02787920		0.00000000		-0.00051994		 0.00011041		-0.00000000
O		1.87469532		4.06907022		5.98641945		-0.00051994		-0.00011041		0.00000000
O		16.46870314		2.66222878		5.98641945		 0.00051994		 0.00011041		0.00000000
O		10.57313487		5.19521731		5.98641945		 0.00045436		-0.00039151		0.00000000
O		7.77026359		1.53608352		5.98641945		-0.00045436		 0.00039151		0.00000000
O		16.94196282		1.82956689		0.00000000		-0.00045436		-0.00039151		0.00000000
O		1.40143564		4.90173211		0.00000000		 0.00045436		 0.00039151		0.00000000
O		12.74132457		3.45046479		5.98641945		 0.00062028		-0.00008918		-0.00000000
O		5.60207389		3.28083605		5.98641945		-0.00062028		 0.00008918		0.00000000
O		14.77377312		0.08481437		0.00000000		-0.00062028		-0.00008918		-0.00000000
O		3.56962534		6.64648463		0.00000000		 0.00062028		 0.00008918		0.00000000
O		8.14997194		5.66102224		7.53810037		-0.00048875		 0.00021341		-0.00012981
O		10.19342652		1.07027677		4.43474037		 0.00048875		-0.00021341		 0.00012981
O		10.19342652		1.07027677		7.53810037		 0.00048875		-0.00021341		-0.00012981
O		8.14997194		5.66102224		4.43474037		-0.00048875		 0.00021341		 0.00012981
O		1.02172729		2.29537365		10.42115982		 0.00048875		 0.00021341		 0.00012981
O		17.32167117		4.43592535		1.55167908		-0.00048875		-0.00021341		-0.00012981
O		17.32167117		4.43592535		10.42115982		-0.00048875		-0.00021341		 0.00012981
O		1.02172729		2.29537365		1.55167908		 0.00048875		 0.00021341		-0.00012981
