# total energy = -117602.909466 eV	

CRYSTAL	
PRIMVEC	
		10.58799967		0.00000000		0.00000000	
		0.00000000		14.09700041		0.00000000	
		-2.45393833		0.00000000		9.76951553	
PRIMCOORD
   156 1	
Si		8.18330189		0.01395604		0.72440976		-0.00013655		-0.00003270		 0.00004466	
Si		-0.04923632		14.08304331		9.04511107		 0.00013655		 0.00003270		-0.00004466	
Si		1.17773073		7.06245625		4.16035012		 0.00013655		-0.00003270		-0.00004466	
Si		6.95633484		7.03454416		5.60917070		-0.00013655		 0.00003270		 0.00004466	
Si		3.61492732		2.67335451		6.58055403		-0.00007179		-0.00014523		 0.00004888	
Si		4.51914037		11.42364484		3.18896680		 0.00007179		 0.00014523		-0.00004888	
Si		3.29217333		9.72185471		8.07372668		 0.00007179		-0.00014523		-0.00004888	
Si		4.84189437		4.37514464		1.69579309		-0.00007179		 0.00014523		 0.00004888	
Si		1.21183891		1.76917322		4.16914240		 0.00004444		-0.00000717		 0.00001908	
Si		6.92222666		12.32782613		5.60037737		-0.00004444		 0.00000717		-0.00001908	
Si		8.14919371		8.81767236		0.71561749		-0.00004444		-0.00000717		-0.00001908	
Si		-0.01512708		5.27932699		9.05390228		 0.00004444		 0.00000717		 0.00001908	
Si		6.86524205		1.73858343		5.59793578		-0.00026373		 0.00005179		-0.00016342	
Si		1.26882459		12.35841698		4.17158505		 0.00026373		-0.00005179		 0.00016342	
Si		0.04185754		8.78708257		9.05634599		 0.00026373		 0.00005179		 0.00016342	
Si		8.09220909		5.30991678		0.71317484		-0.00026373		-0.00005179		-0.00016342	
Mg		4.06703279		0.00000000		4.88475988		0.00000000		0.00000000		0.00000000	
Mg		5.29399984		7.04850020		0.00000000		0.00000000		0.00000000		-0.00000000	
Mg		4.39572559		2.46006772		3.48175993		-0.00033147		-0.00014092		 0.00031013	
Mg		3.73834104		11.63693268		6.28776090		 0.00033147		 0.00014092		-0.00031013	
Mg		4.96530809		9.50856793		1.40300101		 0.00033147		-0.00014092		-0.00031013	
Mg		3.16875854		4.58843248		8.36651981		-0.00033147		 0.00014092		 0.00031013	
Mg		5.29399984		0.00000000		0.00000000		0.00000000		-0.00000000		0.00000000	
Mg		4.06703279		7.04850020		4.88475988		0.00000000		-0.00000000		0.00000000	
Mg		6.19165257		0.03510240		2.86383686		 0.00021180		-0.00013984		 0.00020852	
Mg		1.94241301		14.06189907		6.90568397		-0.00021180		 0.00013984		-0.00020852	
Mg		3.16938006		7.08360048		2.02092303		-0.00021180		-0.00013984		-0.00020852	
Mg		4.96468552		7.01339781		7.74859780		 0.00021180		 0.00013984		 0.00020852	
Mg		0.42170944		0.00493401		1.48887498		 0.00003780		-0.00019108		 0.00009416	
Mg		7.71235825		14.09206534		8.28064584		-0.00003780		 0.00019108		-0.00009416	
Mg		8.93932424		7.05343421		3.39588490		-0.00003780		-0.00019108		-0.00009416	
Mg		-0.80525761		7.04356620		6.37363593		 0.00003780		 0.00019108		 0.00009416	
Mg		-0.86838750		0.00493401		6.20091071		 0.00003770		 0.00010217		 0.00030625	
Mg		9.00245519		14.09206534		3.56861011		-0.00003770		-0.00010217		-0.00030625	
Mg		7.77548814		7.05343421		8.45337106		-0.00003770		 0.00010217		-0.00030625	
Mg		0.35857849		7.04356620		1.31614977		 0.00003770		-0.00010217		 0.00030625	
Mg		3.19404057		0.03904854		2.10484245		 0.00012235		-0.00007025		-0.00003453	
Mg		4.94002607		14.05795081		7.66467731		-0.00012235		 0.00007025		 0.00003453	
Mg		6.16699311		7.08754875		2.77991743		-0.00012235		-0.00007025		 0.00003453	
Mg		1.96707352		7.00945060		6.98960340		 0.00012235		 0.00007025		-0.00003453	
Mg		6.57114024		2.39564398		1.20761007		 0.00031872		-0.00004114		-0.00006629	
Mg		1.56292640		11.70135537		8.56190970		-0.00031872		 0.00004114		 0.00006629	
Mg		2.78989239		9.44414419		3.67714982		-0.00031872		-0.00004114		 0.00006629	
Mg		5.34417319		4.65285622		6.09237101		 0.00031872		 0.00004114		-0.00006629	
Mg		-1.63791484		2.43920407		9.47360212		-0.00026188		 0.00036544		-0.00010394	
Mg		9.77198042		11.65779528		0.29591871		 0.00026188		-0.00036544		 0.00010394	
Mg		8.54501337		9.48770322		5.18067859		 0.00026188		 0.00036544		 0.00010394	
Mg		-0.41094780		4.60929613		4.58884223		-0.00026188		-0.00036544		-0.00010394	
Mg		0.46893509		2.49798759		7.34638722		 0.00009113		 0.00004296		 0.00003230	
Mg		7.66513154		11.59901070		2.42313361		-0.00009113		-0.00004296		-0.00003230	
Mg		6.43816449		9.54648885		7.30789455		-0.00009113		 0.00004296		-0.00003230	
Mg		1.69590108		4.55051050		2.46162628		 0.00009113		-0.00004296		 0.00003230	
Mg		6.00405545		2.48008540		8.74235357		-0.00000879		 0.00021613		-0.00020316	
Mg		2.13001119		11.61691501		1.02716726		 0.00000879		-0.00021613		 0.00020316	
Mg		0.90304414		9.52858560		5.91192820		 0.00000879		 0.00021613		 0.00020316	
Mg		7.23102249		4.56841481		3.85759262		-0.00000879		-0.00021613		-0.00020316	
Mg		3.60529224		2.37633041		0.44060478		-0.00019113		-0.00011431		 0.00004138	
Mg		4.52877334		11.72066894		9.32891604		 0.00019113		 0.00011431		-0.00004138	
Mg		5.75574038		9.42483062		4.44415510		 0.00019113		-0.00011431		-0.00004138	
Mg		2.37832519		4.67216873		5.32536573		-0.00019113		 0.00011431		 0.00004138	
Mg		9.40458318		2.50221643		1.94237595		 0.00015820		 0.00026610		 0.00026650	
Mg		-1.27051655		11.59478186		7.82714488		-0.00015820		-0.00026610		-0.00026650	
Mg		-0.04354950		9.55071770		2.94238393		-0.00015820		 0.00026610		-0.00026650	
Mg		8.17761719		4.54628165		6.82713584		 0.00015820		-0.00026610		 0.00026650	
O		3.63390525		1.06009382		6.54167066		-0.00008260		 0.00023733		 0.00001885	
O		4.50016138		13.03690447		3.22785017		 0.00008260		-0.00023733		-0.00001885	
O		3.27319539		8.10859508		8.11261005		 0.00008260		 0.00023733		-0.00001885	
O		4.86087230		5.98840532		1.65691077		-0.00008260		-0.00023733		 0.00001885	
O		5.72267194		1.22502944		4.50667936		-0.00020656		-0.00014446		 0.00000115	
O		2.41139469		12.87197096		5.26284041		 0.00020656		 0.00014446		-0.00000115	
O		3.63836068		8.27352859		0.37808053		 0.00020656		-0.00014446		-0.00000115	
O		4.49570490		5.82347076		9.39144030		-0.00020656		 0.00014446		 0.00000115	
O		6.88739955		3.38327989		5.59402775		-0.00005789		 0.00011005		 0.00006638	
O		1.24666708		10.71371946		4.17549308		 0.00005789		-0.00011005		-0.00006638	
O		0.01970003		10.43178009		9.06025402		 0.00005789		 0.00011005		-0.00006638	
O		8.11436554		3.66522032		0.70926680		-0.00005789		-0.00011005		 0.00006638	
O		6.50173167		1.20952332		7.12100365		-0.00009472		 0.00026554		-0.00009005	
O		1.63233497		12.88747709		2.64851718		 0.00009472		-0.00026554		 0.00009005	
O		0.40536792		8.25802246		7.53327706		 0.00009472		 0.00026554		 0.00009005	
O		7.72869871		5.83897794		2.23624271		-0.00009472		-0.00026554		-0.00009005	
O		1.23586097		3.41852310		4.15106868		-0.00004310		 0.00001071		 0.00003615	
O		6.89820461		10.67847625		5.61845109		 0.00004310		-0.00001071		-0.00003615	
O		8.12517166		10.46702225		0.73369120		 0.00004310		 0.00001071		-0.00003615	
O		0.00889392		3.62997710		9.03582963		-0.00004310		-0.00001071		 0.00003615	
O		2.73335141		1.23348714		3.75345012		-0.00005753		 0.00008275		-0.00002151	
O		5.40071417		12.86351221		6.01607071		 0.00005753		-0.00008275		 0.00002151	
O		6.62768122		8.28198628		1.13130977		 0.00005753		 0.00008275		 0.00002151	
O		1.50638648		5.81501201		8.63821000		-0.00005753		-0.00008275		-0.00002151	
O		0.80050677		1.22784903		5.68195261		-0.00017838		 0.00002048		-0.00005374	
O		7.33355880		12.86915032		4.08756715		 0.00017838		-0.00002048		 0.00005374	
O		6.10659175		8.27634923		8.97232810		 0.00017838		 0.00002048		 0.00005374	
O		2.02747382		5.82065117		0.79719273		-0.00017838		-0.00002048		-0.00005374	
O		0.07524997		1.24194589		3.09791530		-0.00004847		-0.00007017		 0.00011867	
O		8.05881560		12.85505346		6.67160553		 0.00004847		 0.00007017		-0.00011867	
O		9.28578265		8.29044610		1.78684459		 0.00004847		-0.00007017		-0.00011867	
O		-1.15171602		5.80655431		7.98267518		-0.00004847		 0.00007017		 0.00011867	
O		3.98348606		3.40160560		5.17100646		-0.00009996		-0.00028320		-0.00008541	
O		4.15057952		10.69539375		4.59851437		 0.00009996		 0.00028320		 0.00008541	
O		2.92361247		10.45010580		9.48327320		 0.00009996		-0.00028320		 0.00008541	
O		5.21045311		3.64689355		0.28624657		-0.00009996		 0.00028320		-0.00008541	
O		4.65489441		3.36354385		7.61534147		 0.00012575		 0.00014241		-0.00010076	
O		3.47917116		10.73345549		2.15417936		-0.00012575		-0.00014241		 0.00010076	
O		2.25220517		10.41204512		7.03894030		-0.00012575		 0.00014241		 0.00010076	
O		5.88186146		3.68495635		2.73058053		 0.00012575		-0.00014241		-0.00010076	
O		4.87379495		1.19965530		1.68133411		 0.00000134		 0.00015762		 0.00021568	
O		3.26027062		12.89734510		8.08818566		-0.00000134		-0.00015762		-0.00021568	
O		4.48723767		8.24815445		3.20342577		-0.00000134		 0.00015762		-0.00021568	
O		3.64682896		5.84884490		6.56609506		 0.00000134		-0.00015762		 0.00021568	
O		4.67919493		1.04881654		9.47448092		-0.00005781		 0.00019229		 0.00020399	
O		3.45487170		13.04818281		0.29503990		 0.00005781		-0.00019229		-0.00020399	
O		2.22790466		8.09731675		5.17979979		 0.00005781		 0.00019229		-0.00020399	
O		5.90616198		5.99968260		4.58972104		-0.00005781		-0.00019229		 0.00020399	
O		7.85626399		1.06714331		2.14147905		-0.00013714		-0.00000371		 0.00007408	
O		0.27780158		13.02985710		7.62804178		 0.00013714		 0.00000371		-0.00007408	
O		1.50476863		8.11564246		2.74328083		 0.00013714		-0.00000371		-0.00007408	
O		6.62929800		5.98135689		7.02623999		-0.00013714		 0.00000371		 0.00007408	
O		-1.10338921		1.00652595		8.03054564		 0.00022766		 0.00023867		-0.00015092	
O		9.23745584		13.09047339		1.73897412		-0.00022766		-0.00023867		 0.00015092	
O		8.01048880		8.05502616		6.62373507		-0.00022766		 0.00023867		 0.00015092	
O		0.12357784		6.04197425		3.14578576		 0.00022766		-0.00023867		-0.00015092	
O		9.65343718		1.12212044		0.27257005		-0.00021902		-0.00013493		 0.00008074	
O		-1.51937054		12.97487891		9.49695078		 0.00021902		 0.00013493		-0.00008074	
O		-0.29240349		8.17062064		4.61219089		 0.00021902		-0.00013493		-0.00008074	
O		8.42647013		5.92637870		5.15732994		-0.00021902		 0.00013493		 0.00008074	
O		1.35807613		1.03471968		8.63430303		-0.00001994		 0.00033156		-0.00008660	
O		6.77599050		13.06227967		1.13521780		 0.00001994		-0.00033156		 0.00008660	
O		5.54902345		8.08321988		6.01997768		 0.00001994		 0.00033156		 0.00008660	
O		2.58504318		6.01377947		3.74954209		-0.00001994		-0.00033156		-0.00008660	
O		2.03629998		1.02767125		0.69461301		 0.00023052		-0.00002723		-0.00014320	
O		6.09776666		13.06932810		9.07490781		-0.00023052		 0.00002723		 0.00014320	
O		7.32473264		8.07617039		4.19014793		-0.00023052		-0.00002723		 0.00014320	
O		0.80933293		6.02082896		5.57937290		 0.00023052		 0.00002723		-0.00014320	
O		2.21259335		3.37200155		6.99009150		-0.00011504		 0.00023895		-0.00001830	
O		5.92147434		10.72499780		2.77942932		 0.00011504		-0.00023895		 0.00001830	
O		4.69450729		10.42050175		7.66418921		 0.00011504		 0.00023895		 0.00001830	
O		3.43956040		3.67649760		2.10533162		-0.00011504		-0.00023895		-0.00001830	
O		8.35511654		1.20106351		5.16319145		-0.00014916		 0.00006142		 0.00023395	
O		-0.22104990		12.89593584		4.60632937		 0.00014916		-0.00006142		-0.00023395	
O		-1.44801695		8.24956477		9.49108820		 0.00014916		 0.00006142		-0.00023395	
O		9.58208359		5.84743458		0.27843157		-0.00014916		-0.00006142		 0.00023395	
O		-0.84821948		3.49182700		6.22220742		-0.00006870		 0.00016895		 0.00022205	
O		8.98228717		10.60517341		3.54731341		 0.00006870		-0.00016895		-0.00022205	
O		7.75532012		10.54032614		8.43207224		 0.00006870		 0.00016895		-0.00022205	
O		0.37874651		3.55667320		1.33744647		-0.00006870		-0.00016895		 0.00022205	
O		8.86703150		3.49746617		3.55512841		-0.00010823		-0.00020832		-0.00013785	
O		-0.73296592		10.59953424		6.21439135		 0.00010823		 0.00020832		 0.00013785	
O		0.49400112		10.54596531		1.32963147		 0.00010823		-0.00020832		 0.00013785	
O		7.64006445		3.55103509		8.43988830		-0.00010823		 0.00020832		-0.00013785	
H		-1.20765983		2.72072098		5.86171250		-0.00024241		 0.00023811		 0.00056042	
H		9.34172647		11.37627837		3.90780833		 0.00024241		-0.00023811		-0.00056042	
H		8.11475942		9.76922119		8.79256822		 0.00024241		 0.00023811		-0.00056042	
H		0.01930722		4.32777922		0.97695155		-0.00024241		-0.00023811		 0.00056042	
H		8.69894806		2.87578753		4.06412109		-0.00002115		 0.00019532		-0.00014076	
H		-0.56488143		11.22121182		5.70539974		 0.00002115		-0.00019532		 0.00014076	
H		0.66208562		9.92428774		0.82063986		 0.00002115		 0.00019532		 0.00014076	
H		7.47198101		4.17271161		8.94888097		-0.00002115		-0.00019532		-0.00014076	
