# total energy = -22444.1069885 eV

CRYSTAL
PRIMVEC
		9.05300306		1.44848452		0.00000000
		1.22832067		7.67700190		0.00000000
		-0.52464714		-0.08394354		4.72194348
PRIMECORD
   40 1
Ca		6.72852513		1.58149598		0.42544689		-0.00006999		 0.00050083		-0.00010076
Ca		3.02815146		7.46004140		4.29649567		 0.00006999		-0.00050083		 0.00010076
Ca		2.84213712		4.69990784		1.93552485		-0.00058599		-0.00059577		-0.00023724
Ca		6.91453855		4.34162862		2.78641863		 0.00058599		 0.00059577		 0.00023724
Mg		2.18085710		1.57648192		1.90388833		-0.00043434		 0.00054061		 0.00029277
Mg		7.57581949		7.46505454		2.81805607		 0.00043434		-0.00054061		-0.00029277
Mg		7.62711618		6.18811794		0.45708433		-0.00053132		 0.00004271		 0.00020744
Mg		2.12955949		2.85341852		4.26485915		 0.00053132		-0.00004271		-0.00020744
Si		4.58542062		1.97542462		2.18484249		-0.00004030		 0.00006255		 0.00021926
Si		5.17125505		7.06611184		2.53710007		 0.00004030		-0.00006255		-0.00021926
Si		5.22722016		5.81834645		0.17612833		-0.00033922		-0.00012635		-0.00031280
Si		4.52945642		3.22319001		4.54581515		 0.00033922		 0.00012635		 0.00031280
Si		1.19723699		6.58212267		1.24375983		-0.00003400		-0.00003497		-0.00002150
Si		8.55943868		2.45941379		3.47818365		 0.00003400		 0.00003497		 0.00002150
Si		9.07798901		4.10280759		1.11721191		 0.00029895		-0.00020789		 0.00001636
Si		0.67868758		4.93872887		3.60473065		-0.00029895		 0.00020789		-0.00001636
O		3.71288910		1.86050558		0.53310659		-0.00002785		 0.00013815		-0.00024350
O		6.04378749		7.18103088		4.18883597		 0.00002785		-0.00013815		 0.00024350
O		6.10785908		5.98393508		1.82786423		 0.00021907		-0.00000912		 0.00008689
O		3.64881660		3.05760230		2.89407925		-0.00021907		 0.00000912		-0.00008689
O		4.09087800		4.26835497		0.40467095		 0.00012946		-0.00003162		-0.00001417
O		5.66579767		4.77318150		4.31727253		-0.00012946		 0.00003162		 0.00001417
O		6.50076271		8.39417094		1.95630079		-0.00052221		 0.00010041		-0.00001783
O		3.25591387		0.64736553		2.76564178		 0.00052221		-0.00010041		 0.00001783
O		5.79112256		3.11985309		1.26217588		 0.00035510		 0.00008590		 0.00034208
O		3.96555403		5.92168337		3.45976760		-0.00035510		-0.00008590		-0.00034208
O		4.33400256		6.62694757		1.09879586		-0.00006272		-0.00008838		-0.00007598
O		5.42267403		2.41458889		3.62314671		 0.00006272		 0.00008838		 0.00007598
O		1.60818721		2.88744334		1.02371699		 0.00019784		-0.00041312		-0.00086041
O		8.14848847		6.15409403		3.69822557		-0.00019784		 0.00041312		 0.00086041
O		8.66040564		7.75603132		1.33725383		 0.00040184		-0.00001465		 0.00072778
O		1.09627003		1.28550515		3.38468873		-0.00040184		 0.00001465		-0.00072778
O		0.88745818		0.35817929		0.93636107		-0.00013261		 0.00006705		-0.00016686
O		8.86921749		8.68335809		3.78558150		 0.00013261		-0.00006705		 0.00016686
O		8.58837702		5.33055984		1.42460976		 0.00029028		-0.00029760		 0.00040572
O		1.16829865		3.71097663		3.29733281		-0.00029028		 0.00029760		-0.00040572
O		1.81395065		5.59388365		0.32817470		-0.00002044		 0.00003343		 0.00007160
O		7.94272502		3.44765281		4.39376787		 0.00002044		-0.00003343		-0.00007160
O		8.10432459		2.86011035		2.03279704		 0.00005864		 0.00026674		-0.00002751
O		1.65235108		6.18142703		2.68914735		-0.00005864		-0.00026674		 0.00002751
