# total energy = -22444.1070103 eV

CRYSTAL
PRIMVEC
		9.05300306		-1.44848452		0.00000000
		-1.22832067		7.67700190		0.00000000
		-0.52464714		0.08394354		4.72194348
PRIMECORD
   40 1
Ca		6.56270087		-0.54510128		0.42544689		 0.00061517		-0.00047920		 0.00016741
Ca		0.73733529		6.85756403		4.29649567		-0.00061517		 0.00047920		-0.00016741
Ca		1.44799403		4.01348693		1.93552485		 0.00007107		 0.00038760		 0.00011579
Ca		5.85204214		2.29897582		2.78641863		-0.00007107		-0.00038760		-0.00011579
Mg		1.77772181		0.94310882		1.90388833		 0.00067384		-0.00000514		-0.00018694
Mg		5.52231344		5.36935393		2.81805607		-0.00067384		 0.00000514		 0.00018694
Mg		5.99566206		4.00847287		0.45708433		 0.00035102		 0.00044667		-0.00029196
Mg		1.30437502		2.30398988		4.26485915		-0.00035102		-0.00044667		 0.00029196
Si		4.17761874		0.57333917		2.18484249		 0.00028602		-0.00011528		 0.00031718
Si		3.12241834		5.73912359		2.53710007		-0.00028602		 0.00011528		-0.00031718
Si		3.59109670		4.40741649		0.17612833		 0.00003665		 0.00003311		-0.00021312
Si		3.70893855		1.90504627		4.54581515		-0.00003665		-0.00003311		 0.00021312
Si		-0.90146985		6.53479946		1.24375983		-0.00029970		-0.00029953		-0.00004832
Si		8.20150694		-0.22233670		3.47818365		 0.00029970		 0.00029953		 0.00004832
Si		8.20760100		1.33711356		1.11721191		-0.00000659		-0.00006198		-0.00003158
Si		-0.90756484		4.97534920		3.60473065		 0.00000659		 0.00006198		 0.00003158
O		3.29697892		0.73892688		0.53310659		-0.00030232		-0.00006248		-0.00013966
O		4.00305725		5.57353587		4.18883597		 0.00030232		 0.00006248		 0.00013966
O		4.46363005		4.29249653		1.82786423		-0.00009005		 0.00016972		 0.00024295
O		2.83640703		2.01996622		2.89407925		 0.00009005		-0.00016972		-0.00024295
O		2.90407619		3.14916182		0.40467095		 0.00056802		 0.00015250		 0.00004656
O		4.39596089		3.16330093		4.31727253		-0.00056802		-0.00015250		-0.00004656
O		4.08564024		6.70034591		1.95630079		-0.00009942		-0.00010835		 0.00008874
O		3.21439593		-0.38788316		2.76564178		 0.00009942		 0.00010835		-0.00008874
O		5.07083543		1.38194029		1.26217588		 0.00005192		-0.00003904		 0.00005945
O		2.22920073		4.93052246		3.45976760		-0.00005192		 0.00003904		-0.00005945
O		2.38539568		5.55184495		1.09879586		-0.00024966		 0.00010119		-0.00039410
O		4.91464048		0.76061871		3.62314671		 0.00024966		-0.00010119		 0.00039410
O		0.74443235		2.51102403		1.02371699		-0.00039576		-0.00012030		-0.00081430
O		6.55560381		3.80143872		3.69822557		 0.00039576		 0.00012030		 0.00081430
O		6.56833195		5.31943338		1.33725383		-0.00010026		-0.00048035		 0.00073133
O		0.73170513		0.99302938		3.38468873		 0.00010026		 0.00048035		-0.00073133
O		0.81646097		0.08555164		0.93636107		-0.00032165		-0.00034151		-0.00043214
O		6.48357519		6.22691112		3.78558150		 0.00032165		 0.00034151		 0.00043214
O		7.28906006		2.79017115		1.42460976		 0.00015736		 0.00007355		 0.00019405
O		0.01097610		3.52229252		3.29733281		-0.00015736		-0.00007355		-0.00019405
O		0.07219273		5.29210038		0.32817470		-0.00006573		 0.00029073		-0.00001593
O		7.22784252		1.02036237		4.39376787		 0.00006573		-0.00029073		 0.00001593
O		7.59088734		0.34887637		2.03279704		 0.00002779		 0.00004833		-0.00003958
O		-0.29085117		5.96358638		2.68914735		-0.00002779		-0.00004833		 0.00003958
