# total energy = -14248.690372 eV

CRYSTAL
PRIMVEC
		7.73000130		0.00000000		0.92759829
		0.00000000		7.73000130		0.00000000
		0.60120078		0.00000000		5.00999615
PRIMECORD
   24 1
Ca		2.85751189		1.31410030		2.86120765		-0.00058534		 0.00024377		 0.00027325
Ca		5.48571171		6.41590022		3.17659185		-0.00072321		 0.00052377		-0.00006497
Ca		1.60868798		5.17910017		2.61259231		 0.00058534		 0.00024377		-0.00027325
Ca		6.71048791		2.55090035		3.22480796		 0.00072321		 0.00052377		 0.00006497
Si		1.65333991		2.78280031		4.88936438		-0.00058822		 0.00033817		-0.00056657
Si		7.21893976		4.94720021		5.55723593		-0.00049206		 0.00021635		 0.00001822
Si		2.81285996		6.64780018		0.58443636		 0.00058822		 0.00033817		 0.00056657
Si		4.97725986		1.08220034		0.84416388		 0.00049206		 0.00021635		-0.00001822
Mg		0.00000000		0.00000000		0.00000000		 0.00035142		-0.00046833		-0.00034174
Mg		3.86499987		3.86499987		0.46379992		-0.00035142		-0.00046833		 0.00034174
O		3.97922810		0.00000000		1.41569974		 0.00046706		 0.00025661		 0.00015427
O		0.48697178		3.86499987		4.05810023		-0.00046706		 0.00025661		-0.00015427
O		1.23851207		2.78280031		1.43246416		-0.00039766		-0.00037142		-0.00050557
O		6.80411192		4.94720021		2.10033571		 0.00006842		-0.00028370		 0.00003318
O		3.22768780		6.64780018		4.04133580		 0.00039766		-0.00037142		 0.00050557
O		5.39208770		1.08220034		4.30106410		-0.00006842		-0.00028370		-0.00003318
O		1.10537219		1.39139977		4.13230809		-0.00047435		 0.00024850		 0.00001749
O		7.59857189		6.33859998		4.91149221		 0.00028572		-0.00010117		 0.00013729
O		1.50562799		7.11160011		1.11886828		 0.00045660		-0.00001007		-0.00030685
O		6.45282820		0.61839964		1.71253197		 0.00008859		-0.00059248		 0.00031136
O		3.36082768		5.25640042		1.34149187		 0.00047435		 0.00024850		-0.00001749
O		4.59762774		2.47360010		1.48990838		-0.00028572		-0.00010117		-0.00013729
O		2.96057188		3.24660024		4.35493168		-0.00045660		-0.00001007		 0.00030685
O		5.74337220		4.48340029		4.68886784		-0.00008859		-0.00059248		-0.00031136
