# total energy = -14249.6426899 eV

CRYSTAL
PRIMVEC
		7.72999786		0.00000000		0.61839828
		0.00000000		7.72999786		0.00000000
		0.40080149		0.00000000		5.00999927
PRIMECORD
   24 1
Ca		2.75530806		1.31410002		2.75917222		 0.00033357		-0.00008578		-0.00041666
Ca		5.38350810		6.41590016		2.96942764		 0.00032691		 0.00015970		-0.00003036
Ca		1.51049237		5.17909973		2.56002774		-0.00033357		-0.00008578		 0.00041666
Ca		6.61229173		2.55089968		2.96817215		-0.00032691		 0.00015970		 0.00003036
Si		1.46295996		2.78280001		4.84607584		-0.00012788		-0.00054160		-0.00011038
Si		7.02855997		4.94720018		5.29132415		-0.00009298		-0.00020744		-0.00009628
Si		2.80283969		6.64779971		0.47312412		 0.00012788		-0.00054160		 0.00011038
Si		4.96723987		1.08219970		0.64627564		 0.00009298		-0.00020744		 0.00009628
Mg		0.00000000		0.00000000		0.00000000		 0.00037296		 0.00049636		 0.00022161
Mg		3.86499971		3.86499971		0.30919991		-0.00037296		 0.00049636		-0.00022161
O		3.94115238		0.00000000		1.26109978		-0.00050491		 0.00027222		 0.00014615
O		0.32464805		3.86499971		4.05810018		 0.00050491		 0.00027222		-0.00014615
O		1.18640809		2.78280001		1.38917634		 0.00033761		-0.00052541		 0.00010155
O		6.75200810		4.94720018		1.83442388		-0.00009382		 0.00000158		-0.00008968
O		3.07939233		6.64779971		3.93002439		-0.00033761		-0.00052541		-0.00010155
O		5.24379174		1.08219970		4.10317591		 0.00009382		 0.00000158		 0.00008968
O		0.94304787		1.39140039		4.10757204		-0.00058713		-0.00015956		-0.00025286
O		7.43624841		6.33859980		4.62702815		-0.00062210		-0.00000482		-0.00016906
O		1.46755229		7.11160036		1.06321233		 0.00058934		 0.00026091		 0.00048660
O		6.41475169		0.61839983		1.45898800		 0.00034778		 0.00033386		-0.00064921
O		3.32275177		5.25640010		1.21162791		 0.00058713		-0.00015956		 0.00025286
O		4.55955221		2.47360009		1.31057164		 0.00062210		-0.00000482		 0.00016906
O		2.79824814		3.24659988		4.25598763		-0.00058934		 0.00026091		-0.00048660
O		5.58104814		4.48340031		4.47861179		-0.00034778		 0.00033386		 0.00064921
