# total energy = -38089.9618479 eV

CRYSTAL
PRIMVEC
		5.12288986		0.00000000		0.00000000
		0.00000000		11.46000195		0.00000000
		0.00000000		0.00000000		8.25300118
PRIMECORD
   58 1
O		1.38215620		1.40843406		8.19440403		 0.00025623		 0.00034304		 0.00016846
O		3.74073366		10.05156584		0.05859613		-0.00025623		-0.00034304		-0.00016846
O		3.74073366		4.32156589		8.19440403		-0.00025623		-0.00034304		 0.00016846
O		1.38215620		7.13843401		0.05859613		 0.00025623		 0.00034304		-0.00016846
O		1.38215620		10.05156584		0.05859613		 0.00025623		-0.00034304		-0.00016846
O		3.74073366		1.40843406		8.19440403		-0.00025623		 0.00034304		 0.00016846
O		3.74073366		7.13843401		0.05859613		-0.00025623		 0.00034304		-0.00016846
O		1.38215620		4.32156589		8.19440403		 0.00025623		-0.00034304		 0.00016846
O		2.56144493		5.60966993		6.23596678		0.00000000		 0.00010308		-0.00010482
O		2.56144493		5.85032997		2.01703286		0.00000000		-0.00010308		 0.00010482
O		2.56144493		0.12033002		6.23596678		0.00000000		-0.00010308		-0.00010482
O		2.56144493		11.33966988		2.01703286		0.00000000		 0.00010308		 0.00010482
O		0.00000000		2.86499972		5.91574979		0.00000000		0.00000000		-0.00023361
O		0.00000000		8.59499967		2.33724985		0.00000000		0.00000000		 0.00023361
O		0.00000000		2.86499972		1.80493088		0.00000000		0.00000000		 0.00030879
O		0.00000000		8.59499967		6.44806876		0.00000000		0.00000000		-0.00030879
O		2.56144493		8.59499967		5.93143096		0.00000000		0.00000000		-0.00014545
O		2.56144493		2.86499972		2.32156869		0.00000000		0.00000000		 0.00014545
O		2.56144493		8.59499967		1.78924971		0.00000000		0.00000000		 0.00073017
O		2.56144493		2.86499972		6.46374993		0.00000000		0.00000000		-0.00073017
O		0.00000000		11.33966988		2.10946670		0.00000000		-0.00005294		 0.00020510
O		0.00000000		0.12033002		6.14353396		0.00000000		 0.00005294		-0.00020510
O		0.00000000		5.85032997		2.10946670		0.00000000		 0.00005294		 0.00020510
O		0.00000000		5.60966993		6.14353396		0.00000000		-0.00005294		-0.00020510
O		3.94360113		7.13843401		4.06790395		-0.00025972		 0.00018726		-0.00038840
O		1.17928873		4.32156589		4.18509569		 0.00025972		-0.00018726		 0.00038840
O		1.17928873		10.05156584		4.06790395		 0.00025972		-0.00018726		-0.00038840
O		3.94360113		1.40843406		4.18509569		-0.00025972		 0.00018726		 0.00038840
O		3.94360113		4.32156589		4.18509569		-0.00025972		-0.00018726		 0.00038840
O		1.17928873		7.13843401		4.06790395		 0.00025972		 0.00018726		-0.00038840
O		1.17928873		1.40843406		4.18509569		 0.00025972		 0.00018726		 0.00038840
O		3.94360113		10.05156584		4.06790395		-0.00025972		-0.00018726		-0.00038840
H		2.56144493		8.59499967		4.88164990		0.00000000		0.00000000		 0.00001777
H		2.56144493		2.86499972		3.37135076		0.00000000		0.00000000		-0.00001777
H		0.00000000		2.86499972		2.85471296		0.00000000		0.00000000		 0.00059935
H		0.00000000		8.59499967		5.39828668		0.00000000		0.00000000		-0.00059935
Mg		2.56144493		5.72999995		4.12650008		0.00000000		0.00000000		-0.00000000
Mg		2.56144493		0.00000000		4.12650008		0.00000000		0.00000000		-0.00000000
Mg		0.00000000		0.00000000		0.00000000		0.00000000		0.00000000		0.00000000
Mg		0.00000000		5.72999995		0.00000000		0.00000000		0.00000000		0.00000000
Mg		1.28072298		1.44854373		2.06325004		-0.00005559		 0.00052971		 0.00006879
Mg		3.84216791		10.01145566		6.18974960		 0.00005559		-0.00052971		-0.00006879
Mg		3.84216791		4.28145571		2.06325004		 0.00005559		-0.00052971		 0.00006879
Mg		1.28072298		7.17854368		6.18974960		-0.00005559		 0.00052971		-0.00006879
Mg		1.28072298		10.01145566		6.18974960		-0.00005559		-0.00052971		-0.00006879
Mg		3.84216791		1.44854373		2.06325004		 0.00005559		 0.00052971		 0.00006879
Mg		3.84216791		7.17854368		6.18974960		 0.00005559		 0.00052971		-0.00006879
Mg		1.28072298		4.28145571		2.06325004		-0.00005559		-0.00052971		 0.00006879
Mg		0.00000000		2.86499972		8.00623465		0.00000000		0.00000000		 0.00028192
Mg		0.00000000		8.59499967		0.24676499		0.00000000		0.00000000		-0.00028192
Si		2.56144493		7.10634577		0.96230002		0.00000000		 0.00002103		-0.00008159
Si		2.56144493		4.35365414		7.29070064		0.00000000		-0.00002103		 0.00008159
Si		2.56144493		10.08365357		0.96230002		0.00000000		-0.00002103		-0.00008159
Si		2.56144493		1.37634581		7.29070064		0.00000000		 0.00002103		 0.00008159
Si		0.00000000		1.37634581		5.08880010		0.00000000		 0.00010366		-0.00045753
Si		0.00000000		10.08365357		3.16420005		0.00000000		-0.00010366		 0.00045753
Si		0.00000000		4.35365414		5.08880010		0.00000000		-0.00010366		-0.00045753
Si		0.00000000		7.10634577		3.16420005		0.00000000		 0.00010366		 0.00045753
