# total energy = -38097.5824983 eV

CRYSTAL
PRIMVEC
		5.54979774		0.00000000		0.00000000
		0.00000000		11.45999935		0.00000000
		0.00000000		0.00000000		8.25299878
PRIMECORD
   58 1
O		1.49733488		1.40843378		8.19440346		-0.00024171		 0.00023990		-0.00011658
O		4.05246176		10.05156558		0.05859587		 0.00024171		-0.00023990		 0.00011658
O		4.05246176		4.32156590		8.19440346		 0.00024171		-0.00023990		-0.00011658
O		1.49733488		7.13843345		0.05859587		-0.00024171		 0.00023990		 0.00011658
O		1.49733488		10.05156558		0.05859587		-0.00024171		-0.00023990		 0.00011658
O		4.05246176		1.40843378		8.19440346		 0.00024171		 0.00023990		-0.00011658
O		4.05246176		7.13843345		0.05859587		 0.00024171		 0.00023990		 0.00011658
O		1.49733488		4.32156590		8.19440346		-0.00024171		-0.00023990		-0.00011658
O		2.77489887		5.60966952		6.23596697		0.00000000		 0.00004354		-0.00026332
O		2.77489887		5.85032984		2.01703292		0.00000000		-0.00004354		 0.00026332
O		2.77489887		0.12033016		6.23596697		0.00000000		-0.00004354		-0.00026332
O		2.77489887		11.33966975		2.01703292		0.00000000		 0.00004354		 0.00026332
O		0.00000000		2.86499984		5.91574974		0.00000000		0.00000000		-0.00018146
O		0.00000000		8.59499952		2.33725015		0.00000000		0.00000000		 0.00018146
O		0.00000000		2.86499984		1.80493075		0.00000000		0.00000000		 0.00028640
O		0.00000000		8.59499952		6.44806858		0.00000000		0.00000000		-0.00028640
O		2.77489887		8.59499952		5.93143070		0.00000000		0.00000000		-0.00012552
O		2.77489887		2.86499984		2.32156864		0.00000000		0.00000000		 0.00012552
O		2.77489887		8.59499952		1.78924980		0.00000000		0.00000000		 0.00073268
O		2.77489887		2.86499984		6.46374954		0.00000000		0.00000000		-0.00073268
O		0.00000000		11.33966975		2.10946702		0.00000000		-0.00007180		 0.00012286
O		0.00000000		0.12033016		6.14353398		0.00000000		 0.00007180		-0.00012286
O		0.00000000		5.85032984		2.10946702		0.00000000		 0.00007180		 0.00012286
O		0.00000000		5.60966952		6.14353398		0.00000000		-0.00007180		-0.00012286
O		4.27223375		7.13843345		4.06790407		-0.00058363		 0.00001345		-0.00040074
O		1.27756289		4.32156590		4.18509582		 0.00058363		-0.00001345		 0.00040074
O		1.27756289		10.05156558		4.06790407		 0.00058363		-0.00001345		-0.00040074
O		4.27223375		1.40843378		4.18509582		-0.00058363		 0.00001345		 0.00040074
O		4.27223375		4.32156590		4.18509582		-0.00058363		-0.00001345		 0.00040074
O		1.27756289		7.13843345		4.06790407		 0.00058363		 0.00001345		-0.00040074
O		1.27756289		1.40843378		4.18509582		 0.00058363		 0.00001345		 0.00040074
O		4.27223375		10.05156558		4.06790407		-0.00058363		-0.00001345		-0.00040074
H		2.77489887		8.59499952		4.88164982		0.00000000		0.00000000		 0.00040899
H		2.77489887		2.86499984		3.37135062		0.00000000		0.00000000		-0.00040899
H		0.00000000		2.86499984		2.85471273		0.00000000		0.00000000		 0.00034222
H		0.00000000		8.59499952		5.39828660		0.00000000		0.00000000		-0.00034222
Mg		2.77489887		5.72999968		4.12649994		0.00000000		0.00000000		0.00000000
Mg		2.77489887		0.00000000		4.12649994		0.00000000		0.00000000		0.00000000
Mg		0.00000000		0.00000000		0.00000000		0.00000000		-0.00000000		-0.00000000
Mg		0.00000000		5.72999968		0.00000000		0.00000000		0.00000000		-0.00000000
Mg		1.38744888		1.44854383		2.06324997		-0.00042353		 0.00036544		 0.00016947
Mg		4.16234775		10.01145552		6.18974992		 0.00042353		-0.00036544		-0.00016947
Mg		4.16234775		4.28145585		2.06324997		 0.00042353		-0.00036544		 0.00016947
Mg		1.38744888		7.17854351		6.18974992		-0.00042353		 0.00036544		-0.00016947
Mg		1.38744888		10.01145552		6.18974992		-0.00042353		-0.00036544		-0.00016947
Mg		4.16234775		1.44854383		2.06324997		 0.00042353		 0.00036544		 0.00016947
Mg		4.16234775		7.17854351		6.18974992		 0.00042353		 0.00036544		-0.00016947
Mg		1.38744888		4.28145585		2.06324997		-0.00042353		-0.00036544		 0.00016947
Mg		0.00000000		2.86499984		8.00623479		0.00000000		0.00000000		 0.00045816
Mg		0.00000000		8.59499952		0.24676510		0.00000000		0.00000000		-0.00045816
Si		2.77489887		7.10634563		0.96229997		-0.00000000		-0.00005987		-0.00009051
Si		2.77489887		4.35365372		7.29070048		0.00000000		 0.00005987		 0.00009051
Si		2.77489887		10.08365340		0.96229997		0.00000000		 0.00005987		-0.00009051
Si		2.77489887		1.37634596		7.29070048		0.00000000		-0.00005987		 0.00009051
Si		0.00000000		1.37634596		5.08879991		0.00000000		-0.00008608		-0.00058595
Si		0.00000000		10.08365340		3.16419998		0.00000000		 0.00008608		 0.00058595
Si		0.00000000		4.35365372		5.08879991		0.00000000		 0.00008608		-0.00058595
Si		0.00000000		7.10634563		3.16419998		0.00000000		-0.00008608		 0.00058595
