# total energy = -22467.5016031 eV

CRYSTAL
PRIMVEC
		9.00922278		0.00000000		0.00000000
		0.00000000		8.91740078		0.00000000
		-1.32771619		0.00000000		5.05028200
PRIMECORD
   40 1
Mg		-0.33193040		8.09771286		1.26257140		-0.00000002		-0.00023354		 0.00000004
Mg		-0.99578939		0.81968792		3.78771150		 0.00000002		 0.00023354		-0.00000004
Mg		4.17268189		3.63901247		1.26257140		-0.00000000		-0.00020002		-0.00000000
Mg		3.50882290		5.27838831		3.78771150		0.00000000		 0.00020002		0.00000000
Ca		-0.33193040		2.68841784		1.26257140		 0.00000002		 0.00054659		-0.00000001
Ca		-0.99578939		6.22898294		3.78771150		-0.00000002		-0.00054659		 0.00000001
Ca		4.17268189		7.14711824		1.26257140		 0.00000003		 0.00049504		 0.00000002
Ca		3.50882290		1.77028164		3.78771150		-0.00000003		-0.00049504		-0.00000002
Si		2.27382422		0.83101341		1.15833289		 0.00022101		 0.00079251		-0.00014492
Si		5.40767966		8.08638737		3.89195001		-0.00022101		-0.00079251		 0.00014492
Si		6.07153866		0.83101341		1.36680901		-0.00022064		 0.00079217		 0.00014519
Si		1.60996523		8.08638737		3.68347389		 0.00022064		-0.00079217		-0.00014519
Si		6.77843561		5.28971290		1.15833289		-0.00044395		 0.00043805		-0.00043152
Si		0.90306918		3.62768788		3.89195001		 0.00044395		-0.00043805		 0.00043152
Si		1.56692817		5.28971290		1.36680901		 0.00044380		 0.00043806		 0.00043143
Si		6.11457662		3.62768788		3.68347389		-0.00044380		-0.00043806		-0.00043143
O		0.85257518		0.77492199		0.71643322		-0.00004910		-0.00023316		-0.00018735
O		6.82892870		8.14247789		4.33384968		 0.00004910		 0.00023316		 0.00018735
O		7.49278770		0.77492199		1.80870778		 0.00004879		-0.00023311		 0.00018726
O		0.18871619		8.14247789		3.24157511		-0.00004879		 0.00023311		-0.00018726
O		5.35718657		5.23362148		0.71643322		 0.00043099		-0.00017152		-0.00003358
O		2.32431821		3.68377750		4.33384968		-0.00043099		 0.00017152		 0.00003358
O		2.98817721		5.23362148		1.80870778		-0.00043087		-0.00017152		 0.00003361
O		4.69332758		3.68377750		3.24157511		 0.00043087		 0.00017152		-0.00003361
O		2.82989327		2.23104393		1.60477772		-0.00002576		 0.00018877		-0.00012629
O		4.85161152		6.68635595		3.44550518		 0.00002576		-0.00018877		 0.00012629
O		5.51547051		2.23104393		0.92036418		 0.00002568		 0.00018904		 0.00012622
O		2.16603428		6.68635595		4.12991872		-0.00002568		-0.00018904		-0.00012622
O		7.33450376		6.68974522		1.60477772		 0.00016697		 0.00054103		-0.00002265
O		0.34700013		2.22765556		3.44550518		-0.00016697		-0.00054103		 0.00002265
O		1.01085912		6.68974522		0.92036418		-0.00016692		 0.00054104		 0.00002267
O		6.67064477		2.22765556		4.12991872		 0.00016692		-0.00054104		-0.00002267
O		1.83815353		0.15551901		5.02720307		-0.00023801		 0.00015118		-0.00072467
O		5.84334946		8.76188087		0.02307983		 0.00023801		-0.00015118		 0.00072467
O		5.17949047		0.15551901		2.54822082		 0.00023807		 0.00015123		 0.00072465
O		2.50201252		8.76188087		2.50206207		-0.00023807		-0.00015123		-0.00072465
O		6.34276492		4.61422030		5.02720307		-0.00015998		 0.00016721		-0.00068764
O		1.33873897		4.30318048		0.02307983		 0.00015998		-0.00016721		 0.00068764
O		0.67487998		4.61422030		2.54822082		 0.00015996		 0.00016719		 0.00068766
O		7.00662481		4.30318048		2.50206207		-0.00015996		-0.00016719		-0.00068766
