# total energy = -22468.8053962 eV

CRYSTAL
PRIMVEC
		9.25271467		0.00000000		0.00000000
		0.00000000		8.91739629		0.00000000
		-1.36360032		0.00000000		5.05027971
PRIMECORD
   40 1
Mg		-0.34090054		8.09771310		1.26257085		 0.00000003		-0.00018205		-0.00000003
Mg		-1.02270163		0.81968781		3.78771163		-0.00000003		 0.00018205		 0.00000003
Mg		4.28545679		3.63901311		1.26257085		-0.00000000		-0.00017838		 0.00000010
Mg		3.60365571		5.27838781		3.78771163		0.00000000		 0.00017838		-0.00000010
Ca		-0.34090054		2.68841789		1.26257085		-0.00000002		-0.00001196		-0.00000011
Ca		-1.02270163		6.22898303		3.78771163		 0.00000002		 0.00001196		 0.00000011
Ca		4.28545679		7.14711788		1.26257085		-0.00000004		-0.00001798		-0.00000008
Ca		3.60365571		1.77028211		3.78771163		 0.00000004		 0.00001798		 0.00000008
Si		2.33527878		0.83101314		1.15833255		 0.00022624		-0.00079894		-0.00063533
Si		5.55383373		8.08638778		3.89194994		-0.00022624		 0.00079894		 0.00063533
Si		6.23563481		0.83101314		1.36680916		-0.00022727		-0.00079802		 0.00063466
Si		1.65347677		8.08638778		3.68347425		 0.00022727		 0.00079802		-0.00063466
Si		6.96163704		5.28971313		1.15833255		 0.00013517		-0.00084851		-0.00067379
Si		0.92747639		3.62768778		3.89194994		-0.00013517		 0.00084851		 0.00067379
Si		1.60927840		5.28971313		1.36680916		-0.00013568		-0.00084795		 0.00067343
Si		6.27983503		3.62768778		3.68347425		 0.00013568		 0.00084795		-0.00067343
O		0.87561770		0.77492226		0.71643307		-0.00068548		 0.00062704		 0.00029301
O		7.01349388		8.14247774		4.33384942		 0.00068548		-0.00062704		-0.00029301
O		7.69529589		0.77492226		1.80870771		 0.00068622		 0.00062694		-0.00029272
O		0.19381661		8.14247774		3.24157478		-0.00068622		-0.00062694		 0.00029272
O		5.50197596		5.23362225		0.71643307		-0.00062003		 0.00063460		 0.00031396
O		2.38713654		3.68377774		4.33384942		 0.00062003		-0.00063460		-0.00031396
O		3.06893763		5.23362225		1.80870771		 0.00062050		 0.00063451		-0.00031369
O		4.82017488		3.68377774		3.24157478		-0.00062050		-0.00063451		 0.00031369
O		2.90637668		2.23104417		1.60477788		 0.00013712		-0.00068670		-0.00003897
O		4.98273582		6.68635582		3.44550461		-0.00013712		 0.00068670		 0.00003897
O		5.66453690		2.23104417		0.92036383		-0.00013679		-0.00068752		 0.00003922
O		2.22457467		6.68635582		4.12991866		 0.00013679		 0.00068752		-0.00003922
O		7.53273402		6.68974509		1.60477788		 0.00016466		-0.00063518		-0.00002377
O		0.35637756		2.22765583		3.44550461		-0.00016466		 0.00063518		 0.00002377
O		1.03817957		6.68974509		0.92036383		-0.00016454		-0.00063567		 0.00002388
O		6.85093293		2.22765583		4.12991866		 0.00016454		 0.00063567		-0.00002388
O		1.88783415		0.15551870		5.02720252		 0.00079979		 0.00021193		-0.00026279
O		6.00127835		8.76188037		0.02307997		-0.00079979		-0.00021193		 0.00026279
O		5.31947727		0.15551870		2.54822075		-0.00079983		 0.00021187		 0.00026285
O		2.56963524		8.76188037		2.50206173		 0.00079983		-0.00021187		-0.00026285
O		6.51419149		4.61421962		5.02720252		 0.00081215		 0.00021382		-0.00025777
O		1.37492102		4.30318129		0.02307997		-0.00081215		-0.00021382		 0.00025777
O		0.69311993		4.61421962		2.54822075		-0.00081216		 0.00021379		 0.00025785
O		7.19599257		4.30318129		2.50206173		 0.00081216		-0.00021379		-0.00025785
