# total energy = -22469.9919934 eV

CRYSTAL
PRIMVEC
		9.98319300		0.00000000		0.00000000
		0.00000000		8.91739729		0.00000000
		-1.47125310		0.00000000		5.05028769
PRIMECORD
   40 1
Mg		-0.36781377		8.09771326		1.26257142		-0.00000002		-0.00064173		-0.00000004
Mg		-1.10344232		0.81968803		3.78771227		 0.00000002		 0.00064173		 0.00000004
Mg		4.62378272		3.63901261		1.26257142		-0.00000003		-0.00063062		-0.00000006
Mg		3.88815517		5.27838768		3.78771227		 0.00000003		 0.00063062		 0.00000006
Ca		-0.36781377		2.68841797		1.26257142		-0.00000000		 0.00056955		-0.00000005
Ca		-1.10344232		6.22898332		3.78771227		0.00000000		-0.00056955		 0.00000005
Ca		4.62378272		7.14711761		1.26257142		 0.00000002		 0.00057466		-0.00000002
Ca		3.88815517		1.77028168		3.78771227		-0.00000002		-0.00057466		 0.00000002
Si		2.51964311		0.83101296		1.15833291		-0.00001629		 0.00036504		 0.00003523
Si		5.99229379		8.08638832		3.89194979		 0.00001629		-0.00036504		-0.00003523
Si		6.72792234		0.83101296		1.36680894		 0.00001598		 0.00036525		-0.00003539
Si		1.78401456		8.08638832		3.68347376		-0.00001598		-0.00036525		 0.00003539
Si		7.51123960		5.28971261		1.15833291		 0.00007048		 0.00041451		 0.00007071
Si		1.00069829		3.62768768		3.89194979		-0.00007048		-0.00041451		-0.00007071
Si		1.73632584		5.28971261		1.36680894		-0.00007103		 0.00041488		-0.00007100
Si		6.77561205		3.62768768		3.68347376		 0.00007103		-0.00041488		 0.00007100
O		0.94474649		0.77492239		0.71643286		-0.00028091		-0.00065480		 0.00008779
O		7.56719141		8.14247789		4.33384983		 0.00028091		 0.00065480		-0.00008779
O		8.30281896		0.77492239		1.80870799		 0.00028110		-0.00065481		-0.00008776
O		0.20911794		8.14247789		3.24157471		-0.00028110		 0.00065481		 0.00008776
O		5.93634199		5.23362204		0.71643286		-0.00033910		-0.00066067		 0.00007072
O		2.57559491		3.68377825		4.33384983		 0.00033910		 0.00066067		-0.00007072
O		3.31122346		5.23362204		1.80870799		 0.00033950		-0.00066072		-0.00007063
O		5.20071544		3.68377825		3.24157471		-0.00033950		 0.00066072		 0.00007063
O		3.13582774		2.23104397		1.60477831		-0.00013053		 0.00043133		 0.00007414
O		5.37611016		6.68635632		3.44550539		 0.00013053		-0.00043133		-0.00007414
O		6.11173771		2.23104397		0.92036354		 0.00013062		 0.00043113		-0.00007407
O		2.40020019		6.68635632		4.12991916		-0.00013062		-0.00043113		 0.00007407
O		8.12742424		6.68974461		1.60477831		-0.00016271		 0.00038121		 0.00005847
O		0.38451266		2.22765567		3.44550539		 0.00016271		-0.00038121		-0.00005847
O		1.12014121		6.68974461		0.92036354		 0.00016286		 0.00038083		-0.00005836
O		7.39179569		2.22765567		4.12991916		-0.00016286		-0.00038083		 0.00005836
O		2.03687286		0.15551918		5.02720255		-0.00032500		-0.00040929		 0.00018658
O		6.47506404		8.76188111		0.02308014		 0.00032500		 0.00040929		-0.00018658
O		5.73943649		0.15551918		2.54822099		 0.00032498		-0.00040930		-0.00018653
O		2.77250141		8.76188111		2.50206170		-0.00032498		 0.00040930		 0.00018653
O		7.02847036		4.61421982		5.02720255		-0.00034145		-0.00041236		 0.00018212
O		1.48346754		4.30318147		0.02308014		 0.00034145		 0.00041236		-0.00018212
O		0.74783999		4.61421982		2.54822099		 0.00034139		-0.00041241		-0.00018204
O		7.76409791		4.30318147		2.50206170		-0.00034139		 0.00041241		 0.00018204
