# total energy = -22469.6141404 eV

CRYSTAL
PRIMVEC
		9.49620762		0.00000000		0.00000000
		0.00000000		8.91740427		0.00000000
		-1.39948461		0.00000000		5.05028263
PRIMECORD
   40 1
Mg		-0.34987163		8.09771252		1.26257113		 0.00000005		-0.00017239		-0.00000007
Mg		-1.04961488		0.81968795		3.78771150		-0.00000005		 0.00017239		 0.00000007
Mg		4.39823219		3.63901323		1.26257113		 0.00000003		-0.00016855		-0.00000008
Mg		3.69848893		5.27838819		3.78771150		-0.00000003		 0.00016855		 0.00000008
Ca		-0.34987163		2.68841816		1.26257113		0.00000000		-0.00057510		-0.00000007
Ca		-1.04961488		6.22898231		3.78771150		-0.00000000		 0.00057510		 0.00000007
Ca		4.39823219		7.14711745		1.26257113		 0.00000001		-0.00058110		-0.00000004
Ca		3.69848893		1.77028208		3.78771150		-0.00000001		 0.00058110		 0.00000004
Si		2.39673265		0.83101313		1.15833316		-0.00003134		-0.00038429		-0.00061438
Si		5.69998657		8.08638734		3.89194947		 0.00003134		 0.00038429		 0.00061438
Si		6.39973077		0.83101313		1.36680911		 0.00003093		-0.00038393		 0.00061417
Si		1.69699035		8.08638734		3.68347353		-0.00003093		 0.00038393		-0.00061417
Si		7.14483741		5.28971242		1.15833316		-0.00011901		-0.00043549		-0.00065135
Si		0.95188371		3.62768806		3.89194947		 0.00011901		 0.00043549		 0.00065135
Si		1.65162696		5.28971242		1.36680911		 0.00011859		-0.00043512		 0.00065113
Si		6.44509416		3.62768806		3.68347353		-0.00011859		 0.00043512		-0.00065113
O		0.89866126		0.77492188		0.71643284		-0.00037186		 0.00041118		 0.00031161
O		7.19805985		8.14247764		4.33384980		 0.00037186		-0.00041118		-0.00031161
O		7.89780311		0.77492188		1.80870753		 0.00037204		 0.00041114		-0.00031146
O		0.19891706		8.14247764		3.24157510		-0.00037204		-0.00041114		 0.00031146
O		5.64676507		5.23362212		0.71643284		-0.00031244		 0.00041771		 0.00033049
O		2.44995604		3.68377741		4.33384980		 0.00031244		-0.00041771		-0.00033049
O		3.14970025		5.23362212		1.80870753		 0.00031266		 0.00041766		-0.00033043
O		4.94702087		3.68377741		3.24157510		-0.00031266		-0.00041766		 0.00033043
O		2.98285947		2.23104377		1.60477837		 0.00008989		-0.00067122		 0.00015046
O		5.11386069		6.68635576		3.44550521		-0.00008989		 0.00067122		-0.00015046
O		5.81360395		2.23104377		0.92036390		-0.00008978		-0.00067149		-0.00015032
O		2.28311717		6.68635576		4.12991874		 0.00008978		 0.00067149		 0.00015032
O		7.73096329		6.68974495		1.60477837		 0.00011887		-0.00061807		 0.00016663
O		0.36575688		2.22765552		3.44550521		-0.00011887		 0.00061807		-0.00016663
O		1.06550014		6.68974495		0.92036390		-0.00011875		-0.00061832		-0.00016647
O		7.03122098		2.22765552		4.12991874		 0.00011875		 0.00061832		 0.00016647
O		1.93751409		0.15551939		5.02720305		 0.00058461		 0.00013356		-0.00013446
O		6.15920703		8.76188108		0.02307958		-0.00058461		-0.00013356		 0.00013446
O		5.45946377		0.15551939		2.54822090		-0.00058456		 0.00013351		 0.00013453
O		2.63725734		8.76188108		2.50206173		 0.00058456		-0.00013351		-0.00013453
O		6.68561790		4.61421963		5.02720305		 0.00059614		 0.00013529		-0.00012958
O		1.41110322		4.30318084		0.02307958		-0.00059614		-0.00013529		 0.00012958
O		0.71135996		4.61421963		2.54822090		-0.00059614		 0.00013525		 0.00012961
O		7.38536115		4.30318084		2.50206173		 0.00059614		-0.00013525		-0.00012961
