# total energy = -10068.3900512 eV	

CRYSTAL	
PRIMVEC	
		4.82861061		0.38628788		0.00000000	
		0.38628788		4.82861061		0.00000000	
		0.00000000		0.00000000		4.82861061	
PRIMCOORD
   12 1	
Mg		0.00000000		0.00000000		0.00000000		0.00000000		0.00000000		0.00000000	
Mg		2.41430579		0.19314394		2.41430579		0.00000000		0.00000000		0.00000000	
Mg		0.19314394		2.41430579		2.41430579		0.00000000		0.00000000		-0.00000000	
Mg		2.60745118		2.60745118		0.00000000		-0.00000000		0.00000000		-0.00000000	
O		0.65948392		2.88064577		4.39681589		-0.00016739		-0.00033688		 0.00068746	
O		4.55541699		2.33425611		0.43179617		 0.00016739		 0.00033688		-0.00068746	
O		2.14111120		2.14111120		1.98251010		 0.00016739		 0.00033688		 0.00068746	
O		3.07379020		3.07379020		2.84610196		-0.00016739		-0.00033688		-0.00068746	
O		4.43136019		0.78354121		2.84610196		 0.00033240		-0.00025160		-0.00068600	
O		0.78354121		4.43136019		1.98251010		-0.00033240		 0.00025160		 0.00068600	
O		3.19784700		4.62450510		0.43179617		-0.00033240		 0.00025160		-0.00068600	
O		2.01705391		0.59039679		4.39681589		 0.00033240		-0.00025160		 0.00068600	
