# total energy = -10068.3900512 eV	

CRYSTAL	
PRIMVEC	
		4.82861061		-0.38628788		0.00000000	
		-0.38628788		4.82861061		0.00000000	
		0.00000000		0.00000000		4.82861061	
PRIMCOORD
   12 1	
Mg		0.00000000		0.00000000		0.00000000		0.00000000		0.00000000		0.00000000	
Mg		2.41430579		-0.19314394		2.41430579		0.00000000		0.00000000		0.00000000	
Mg		-0.19314394		2.41430579		2.41430579		0.00000000		0.00000000		0.00000000	
Mg		2.22116185		2.22116185		0.00000000		-0.00000000		-0.00000000		0.00000000	
O		0.20410794		2.81155815		4.39681589		-0.00033203		-0.00025097		 0.00068634	
O		4.23821576		1.63076506		0.43179617		 0.00033203		 0.00025097		-0.00068634	
O		1.82390900		1.82390900		1.98251010		 0.00033203		 0.00025097		 0.00068634	
O		2.61841421		2.61841421		2.84610196		-0.00033203		-0.00025097		-0.00068634	
O		4.36227305		0.08005113		2.84610196		 0.00016736		-0.00033684		-0.00068708	
O		0.08005113		4.36227305		1.98251010		-0.00016736		 0.00033684		 0.00068708	
O		2.49435692		4.16912814		0.43179617		-0.00016736		 0.00033684		-0.00068708	
O		1.94796678		0.27319507		4.39681589		 0.00016736		-0.00033684		 0.00068708	
