# total energy = -24714.0269954 eV

CRYSTAL
PRIMVEC
		8.58704997		0.00000000		0.00000000
		0.00000000		8.69499778		0.00000000
		0.00000000		0.00000000		5.08900353
PRIMECORD
   40 1
O		1.03903305		0.75124837		0.29974214		-0.00005744		 0.00057588		-0.00008439
O		1.03903305		7.94375112		2.84424219		-0.00005744		-0.00057588		-0.00008439
O		5.33255803		5.09874812		2.24475791		-0.00005744		 0.00057588		 0.00008439
O		5.33255803		3.59625223		4.78925796		-0.00005744		-0.00057588		 0.00008439
O		3.23645913		2.13896975		0.53739820		-0.00002467		-0.00028313		 0.00022317
O		3.23645913		6.55602975		3.08189910		-0.00002467		 0.00028313		 0.00022317
O		7.52998326		6.48647035		2.00710185		-0.00002467		-0.00028313		-0.00022317
O		7.52998326		2.20853000		4.55160190		-0.00002467		 0.00028313		-0.00022317
O		3.07244562		8.35502531		1.40456401		 0.00050489		 0.00029426		-0.00037520
O		3.07244562		0.33997419		3.94906406		 0.00050489		-0.00029426		-0.00037520
O		7.36597061		4.00752470		1.13993604		 0.00050489		 0.00029426		 0.00037520
O		7.36597061		4.68747394		3.68443609		 0.00050489		-0.00029426		 0.00037520
O		7.54286470		7.90114562		4.45338408		-0.00030539		 0.00009758		-0.00007230
O		7.54286470		0.79385388		1.90888403		-0.00030539		-0.00009758		-0.00007230
O		3.24933971		3.55364587		3.18011606		-0.00030539		 0.00009758		 0.00007230
O		3.24933971		5.14135277		0.63561602		-0.00030539		-0.00009758		 0.00007230
O		5.33599285		6.61080826		4.87882518		-0.00003876		-0.00025172		 0.00011312
O		5.33599285		2.08419209		2.33432427		-0.00003876		 0.00025172		 0.00011312
O		1.04246787		2.26330765		2.75467583		-0.00003876		-0.00025172		-0.00011312
O		1.04246787		6.43169098		0.21017578		-0.00003876		 0.00025172		-0.00011312
O		5.55066910		8.27503092		2.86103589		 0.00010056		 0.00026039		 0.00023308
O		5.55066910		0.41996857		0.31653584		 0.00010056		-0.00026039		 0.00023308
O		1.25714412		3.92753118		4.77246426		 0.00010056		 0.00026039		-0.00023308
O		1.25714412		4.76746918		2.22796421		 0.00010056		-0.00026039		-0.00023308
Si		2.54777773		0.77124589		0.34808809		 0.00055005		-0.00014896		-0.00067445
Si		2.54777773		7.92375274		2.89258814		 0.00055005		 0.00014896		-0.00067445
Si		6.84130185		5.11874564		2.19641282		 0.00055005		-0.00014896		 0.00067445
Si		6.84130185		3.57625300		4.74091201		 0.00055005		 0.00014896		 0.00067445
Si		6.02725038		7.91592736		4.38671766		-0.00048912		 0.00029819		-0.00004520
Si		6.02725038		0.77907213		1.84221761		-0.00048912		-0.00029819		-0.00004520
Si		1.73372539		3.56842762		3.24678163		-0.00048912		 0.00029819		 0.00004520
Si		1.73372539		5.12657188		0.70228158		-0.00048912		-0.00029819		 0.00004520
Mg		8.56558235		0.83558866		3.64372402		-0.00025560		 0.00013345		 0.00036900
Mg		8.56558235		7.85940998		1.09922397		-0.00025560		-0.00013345		 0.00036900
Mg		4.27205736		5.18308926		3.98977613		-0.00025560		 0.00013345		-0.00036900
Mg		4.27205736		3.51191023		1.44527608		-0.00025560		-0.00013345		-0.00036900
Mg		0.05152230		2.28417590		1.09464364		 0.00001547		 0.00003429		 0.00066555
Mg		0.05152230		6.41082359		3.63914369		 0.00001547		-0.00003429		 0.00066555
Mg		4.34504729		6.63167565		1.44985641		 0.00001547		 0.00003429		-0.00066555
Mg		4.34504729		2.06332385		3.99435560		 0.00001547		-0.00003429		-0.00066555
