# total energy = -24715.6343142 eV

CRYSTAL
PRIMVEC
		9.68100003		0.38723961		0.00000000
		0.34956010		8.73900247		0.00000000
		1.61441559		0.06457546		4.94514327
PRIMECORD
   40 1
Si		2.50082594		3.67729008		0.99397476		-0.00001771		-0.00025496		-0.00007878
Si		9.14414591		5.51352650		3.95117142		 0.00001771		 0.00025496		 0.00007878
Si		3.60829849		8.08409781		1.47859882		 0.00035773		-0.00001861		 0.00019429
Si		8.03667239		1.10671876		3.46654833		-0.00035773		 0.00001861		-0.00019429
Si		8.27401846		3.90821832		1.47859882		 0.00005882		 0.00009006		 0.00006727
Si		3.37095339		5.28259922		3.46654833		-0.00005882		-0.00009006		-0.00006727
Si		7.51610601		8.24041015		0.99397476		 0.00007465		-0.00057140		-0.00038689
Si		4.12886584		0.95040642		3.95117142		-0.00007465		 0.00057140		 0.00038689
O		4.18065604		3.83173346		0.49451530		 0.00057125		-0.00000710		-0.00005565
O		7.46431581		5.35908312		4.45063185		-0.00057125		 0.00000710		 0.00005565
O		1.93545979		8.10443448		1.97805924		-0.00033132		-0.00051951		 0.00013478
O		9.70951206		1.08638210		2.96708790		 0.00033132		 0.00051951		-0.00013478
O		8.68910254		2.52881865		0.78627818		-0.00014314		 0.00030418		 0.00020311
O		2.95586931		6.66199792		4.15886897		 0.00014314		-0.00030418		-0.00020311
O		6.98916250		6.82333000		1.68629539		-0.00012764		 0.00019264		 0.00012225
O		4.65580935		2.36748658		3.25885175		 0.00012764		-0.00019264		-0.00012225
O		3.15712675		4.40154384		4.69788853		-0.00050338		-0.00010364		 0.00002639
O		8.48784607		4.78927274		0.24725668		 0.00050338		 0.00010364		-0.00002639
O		4.62234057		8.82266088		2.71983122		 0.00040460		 0.00064934		 0.00009449
O		7.02263031		0.36815473		2.22531592		-0.00040460		-0.00064934		-0.00009449
O		9.28806150		4.64678042		2.71983122		 0.00015316		-0.00022352		 0.00042686
O		2.35691132		4.54403616		2.22531592		-0.00015316		 0.00022352		-0.00042686
O		8.17240584		8.96466391		4.69788853		-0.00040916		-0.00003415		-0.00011698
O		3.47256601		0.22615266		0.24725668		 0.00040916		 0.00003415		 0.00011698
O		1.97388340		2.26020993		1.68629539		-0.00086752		 0.00005400		-0.00046020
O		9.67108942		6.93060665		3.25885175		 0.00086752		-0.00005400		 0.00046020
O		4.02338258		6.70469911		0.78627818		 0.00004779		 0.00062764		-0.00082197
O		7.62158830		2.48611746		4.15886800		-0.00004779		-0.00062764		 0.00082197
O		6.60117975		3.92855499		1.97805924		-0.00055497		-0.00061227		 0.00052020
O		5.04379306		5.26226159		2.96708790		 0.00055497		 0.00061227		-0.00052020
O		9.19593611		8.39485353		0.49451530		 0.00069537		 0.00004367		-0.00002985
O		2.44903574		0.79596304		4.45063185		-0.00069537		-0.00004367		 0.00002985
Mg		0.43541300		0.81139333		1.23628727		-0.00026724		-0.00031310		 0.00047782
Mg		1.52855978		7.99218266		3.70885987		 0.00026724		 0.00031310		-0.00047782
Mg		5.45069307		5.37451244		1.23628727		 0.00020621		-0.00022565		 0.00073211
Mg		6.19427975		3.81630414		3.70885987		-0.00020621		 0.00022565		-0.00073211
Mg		0.56407852		6.04282534		0.98902865		 0.00055617		 0.00016614		 0.00017907
Mg		1.39989426		2.76075065		3.95611655		-0.00055617		-0.00016614		-0.00017907
Mg		5.39124005		1.87340340		1.48354395		 0.00036379		-0.00004072		 0.00013678
Mg		6.25373277		7.31741415		3.46160319		-0.00036379		 0.00004072		-0.00013678
