# total energy = -24708.2799122 eV

CRYSTAL
PRIMVEC
		9.68100360		1.54896489		0.00000000
		1.39823614		8.73900283		0.00000000
		1.61441729		0.25830951		4.94514622
PRIMECORD
   40 1
Si		2.93078499		3.96019060		0.99397543		-0.00055978		 0.00025661		 0.00009125
Si		9.76286812		6.58607487		3.95117177		 0.00055978		-0.00025661		-0.00009125
Si		4.56259775		8.47892171		1.47859866		-0.00007548		 0.00016357		 0.00005474
Si		8.13105536		2.06734375		3.46654756		 0.00007548		-0.00016357		-0.00005474
Si		8.70397756		4.88390176		1.47859866		 0.00013703		 0.00025522		-0.00015344
Si		3.98967457		5.66236468		3.46654756		-0.00013703		-0.00025522		 0.00015344
Si		8.47040486		9.10417053		0.99397543		-0.00012015		 0.00046897		 0.00007979
Si		4.22324825		1.44209493		3.95117177		 0.00012015		-0.00046897		-0.00007979
O		4.62110196		4.31579535		0.49451462		-0.00043171		 0.00024790		-0.00019019
O		8.07255115		6.23047208		4.45063160		 0.00043171		-0.00024790		 0.00019019
O		2.90024609		8.29809819		1.97805947		-0.00019749		 0.00000818		-0.00039108
O		9.79340702		2.24816826		2.96708773		 0.00019749		-0.00000818		 0.00039108
O		8.95127311		3.56102412		0.78627780		 0.00063985		 0.00032192		-0.00015569
O		3.74237902		6.98524233		4.15886941		-0.00063985		-0.00032192		 0.00015569
O		7.77567316		7.63056904		1.68629531		 0.00050448		 0.00041932		-0.00020196
O		4.91797995		2.91569741		3.25885189		-0.00050448		-0.00041932		 0.00020196
O		3.67098042		4.75984515		4.69788891		-0.00008531		 0.00008438		 0.00013611
O		9.02267269		5.78642129		0.24725731		 0.00008531		-0.00008438		-0.00013611
O		5.66053523		9.33581476		2.71983140		-0.00059906		-0.00020728		 0.00070335
O		7.03311788		1.21045168		2.22531580		 0.00059906		 0.00020728		-0.00070335
O		9.80191504		5.74079481		2.71983140		-0.00048790		-0.00012324		 0.00082603
O		2.89173806		4.80547163		2.22531580		 0.00048790		 0.00012324		-0.00082603
O		9.21060029		9.90382509		4.69788891		-0.00013587		 0.00055910		 0.00022191
O		3.48305282		0.64244135		0.24725731		 0.00013587		-0.00055910		-0.00022191
O		2.23605329		2.48658910		1.68629531		 0.00053490		-0.00035859		 0.00015868
O		10.45759982		8.05967734		3.25885189		-0.00053490		 0.00035859		-0.00015868
O		4.80989428		7.15604406		0.78627780		 0.00057342		 0.00008022		 0.00031079
O		7.88375883		3.39022238		4.15886842		-0.00057342		-0.00008022		-0.00031079
O		7.04162590		4.70307824		1.97805947		 0.00008636		 0.00019834		-0.00020550
O		5.65202721		5.84318820		2.96708773		-0.00008636		-0.00019834		 0.00020550
O		10.16072183		9.45977431		0.49451462		 0.00001103		-0.00006526		-0.00027890
O		2.53293128		1.08649214		4.45063160		-0.00001103		 0.00006526		 0.00027890
Mg		0.53084286		0.85982645		1.23628656		 0.00016820		 0.00063038		 0.00039766
Mg		2.48180959		8.13748099		3.70885967		-0.00016820		-0.00063038		-0.00039766
Mg		6.07046273		6.00380639		1.23628656		 0.00037189		 0.00027444		 0.00073233
Mg		6.62319038		4.54246104		3.70885967		-0.00037189		-0.00027444		-0.00073233
Mg		1.28766806		6.08157081		0.98902924		 0.00050982		 0.00014087		 0.00005568
Mg		1.72498537		2.91573466		3.95611698		-0.00050982		-0.00014087		-0.00005568
Mg		5.59048862		2.51238182		1.48354387		 0.00008785		-0.00025356		 0.00024037
Mg		7.10316253		8.03388463		3.46160334		-0.00008785		 0.00025356		-0.00024037
