# total energy = -24715.6343142 eV

CRYSTAL
PRIMVEC
		9.68100003		-0.38723961		0.00000000
		-0.34956010		8.73900247		0.00000000
		1.61441559		-0.06457546		4.94514327
PRIMECORD
   40 1
Si		2.21418647		3.48869001		0.99397476		-0.00035773		-0.00001861		-0.00019429
Si		8.73166615		4.79849351		3.95117142		 0.00035773		 0.00001861		 0.00019429
Si		2.97209988		7.82088184		1.47859882		 0.00001774		-0.00025496		 0.00007875
Si		7.97375274		0.46630168		3.46654833		-0.00001774		 0.00025496		-0.00007875
Si		7.98737995		3.25776177		1.47859882		-0.00007465		-0.00057140		 0.00038688
Si		2.95847267		5.02942175		3.46654833		 0.00007465		 0.00057140		-0.00038688
Si		6.87990643		7.66456950		0.99397476		-0.00005881		 0.00009007		-0.00006727
Si		4.06594619		0.62261402		3.95117142		 0.00005881		-0.00009007		 0.00006727
O		3.88702614		3.50902571		0.49451530		 0.00033134		-0.00051951		-0.00013479
O		7.05882648		4.77815781		4.45063185		-0.00033134		 0.00051951		 0.00013479
O		1.29226979		7.97532425		1.97805924		-0.00057128		-0.00000710		 0.00005565
O		9.65358283		0.31185830		2.96708790		 0.00057128		 0.00000710		-0.00005565
O		8.51432250		1.84068161		0.78627818		 0.00012763		 0.00019262		-0.00012227
O		2.43152916		6.44650191		4.15886897		-0.00012763		-0.00019262		 0.00012227
O		6.46482235		6.28517080		1.68629539		 0.00014314		 0.00030417		-0.00020311
O		4.48103027		2.00201272		3.25885175		-0.00014314		-0.00030417		 0.00020311
O		2.81455804		4.16267664		4.69788853		-0.00040459		 0.00064936		-0.00009449
O		8.13129458		4.12450688		0.24725668		 0.00040459		-0.00064936		 0.00009449
O		3.93021273		8.48055820		2.71983122		 0.00050337		-0.00010366		-0.00002638
O		7.01563989		-0.19337468		2.22531592		-0.00050337		 0.00010366		 0.00002638
O		8.94549280		3.91743910		2.71983122		 0.00040916		-0.00003413		 0.00011700
O		2.00035982		4.36974442		2.22531592		-0.00040916		 0.00003413		-0.00011700
O		7.48027704		8.33855710		4.69788853		-0.00015315		-0.00022351		-0.00042685
O		3.46557461		-0.05137261		0.24725668		 0.00015315		 0.00022351		 0.00042685
O		1.79910335		2.10929034		1.68629539		-0.00004780		 0.00062763		 0.00082198
O		9.14674927		6.17789318		3.25885175		 0.00004780		-0.00062763		-0.00082198
O		3.49904243		6.40380169		0.78627818		 0.00086752		 0.00005399		 0.00046020
O		7.44680825		1.88338183		4.15886800		-0.00086752		-0.00005399		-0.00046020
O		6.30754985		3.41220515		1.97805924		-0.00069537		 0.00004366		 0.00002984
O		4.63830277		4.87497837		2.96708790		 0.00069537		-0.00004366		-0.00002984
O		8.55274611		7.68490617		0.49451530		 0.00055498		-0.00061226		-0.00052021
O		2.39310652		0.60227735		4.45063185		-0.00055498		 0.00061226		 0.00052021
Mg		0.37179285		0.77910463		1.23628727		-0.00020622		-0.00022565		-0.00073215
Mg		0.89305973		7.89531850		3.70885987		 0.00020622		 0.00022565		 0.00073215
Mg		5.03751282		4.95498509		1.23628727		 0.00026724		-0.00031311		-0.00047783
Mg		5.90833980		3.33219843		3.70885987		-0.00026724		 0.00031311		 0.00047783
Mg		0.08168578		6.01699516		0.98902865		-0.00036379		-0.00004072		-0.00013679
Mg		1.18316681		2.65742894		3.95611655		 0.00036379		 0.00004072		 0.00013679
Mg		5.25840644		1.44741657		1.48354395		-0.00055617		 0.00016613		-0.00017908
Mg		5.68744522		6.83976695		3.46160319		 0.00055617		-0.00016613		 0.00017908
