# total energy = -20638.1643993 eV	

CRYSTAL	
PRIMVEC	
		4.74599980		0.00000000		0.00000000	
		0.00000000		10.17999872		0.00000000	
		0.00000000		0.00000000		6.42419957	
PRIMCOORD
   28 1	
Si		2.02227004		0.95590179		1.60605013		 0.00033066		-0.00003636		0.00000000	
Si		2.72372881		9.22409741		4.81814992		-0.00033066		 0.00003636		0.00000000	
Si		4.39527089		4.13409805		4.81814992		 0.00033066		 0.00003636		0.00000000	
Si		0.35072891		6.04590162		1.60605013		-0.00033066		-0.00003636		0.00000000	
Mg		0.00000000		0.00000000		0.00000000		0.00000000		-0.00000000		-0.00000000	
Mg		2.37299990		5.08999984		0.00000000		0.00000000		0.00000000		0.00000000	
Mg		0.00000000		0.00000000		3.21209979		0.00000000		0.00000000		0.00000000	
Mg		2.37299990		5.08999984		3.21209979		0.00000000		0.00000000		0.00000000	
Mg		4.70518373		2.82189602		1.60605013		 0.00008603		-0.00021582		-0.00000000	
Mg		0.04081607		7.35810365		4.81814992		-0.00008603		 0.00021582		-0.00000000	
Mg		2.33218383		2.26810381		4.81814992		 0.00008603		 0.00021582		-0.00000000	
Mg		2.41381503		7.91189586		1.60605013		-0.00008603		-0.00021582		-0.00000000	
O		3.63590997		0.93554192		1.60605013		-0.00060193		 0.00035814		0.00000000	
O		1.11008888		9.24445775		4.81814992		 0.00060193		-0.00035814		0.00000000	
O		1.26291102		4.15445791		4.81814992		-0.00060193		-0.00035814		-0.00000000	
O		3.48308878		6.02554176		1.60605013		 0.00060193		 0.00035814		-0.00000000	
O		1.04506916		4.54944185		1.60605013		-0.00029306		 0.00058354		0.00000000	
O		3.70093065		5.63055782		4.81814992		 0.00029306		-0.00058354		0.00000000	
O		3.41806906		0.54055799		4.81814992		-0.00029306		-0.00058354		-0.00000000	
O		1.32793074		9.63944168		1.60605013		 0.00029306		 0.00058354		-0.00000000	
O		1.31796415		1.65730408		0.21392594		-0.00034799		-0.00092914		 0.00031155	
O		3.42803566		8.52269559		6.21027363		 0.00034799		 0.00092914		-0.00031155	
O		3.69096405		3.43269575		6.21027363		-0.00034799		 0.00092914		-0.00031155	
O		1.05503576		6.74730392		0.21392594		 0.00034799		-0.00092914		 0.00031155	
O		3.42803566		8.52269559		3.42602573		 0.00034799		 0.00092914		 0.00031155	
O		1.31796415		1.65730408		2.99817384		-0.00034799		-0.00092914		-0.00031155	
O		1.05503576		6.74730392		2.99817384		 0.00034799		-0.00092914		-0.00031155	
O		3.69096405		3.43269575		3.42602573		-0.00034799		 0.00092914		 0.00031155	
