# total energy = -20638.5983682 eV	

CRYSTAL	
PRIMVEC	
		4.74599980		0.00000000		0.00000000	
		0.00000000		10.17999872		0.00000000	
		0.00000000		0.00000000		6.27480024	
PRIMCOORD
   28 1	
Si		2.02227004		0.95590179		1.56870006		 0.00036527		 0.00020360		0.00000000	
Si		2.72372881		9.22409741		4.70609971		-0.00036527		-0.00020360		0.00000000	
Si		4.39527089		4.13409805		4.70609971		 0.00036527		-0.00020360		-0.00000000	
Si		0.35072891		6.04590162		1.56870006		-0.00036527		 0.00020360		-0.00000000	
Mg		0.00000000		0.00000000		0.00000000		0.00000000		0.00000000		-0.00000000	
Mg		2.37299990		5.08999984		0.00000000		0.00000000		0.00000000		0.00000000	
Mg		0.00000000		0.00000000		3.13739965		0.00000000		0.00000000		-0.00000000	
Mg		2.37299990		5.08999984		3.13739965		0.00000000		0.00000000		-0.00000000	
Mg		4.70518373		2.82189602		1.56870006		-0.00005155		-0.00023618		-0.00000000	
Mg		0.04081607		7.35810365		4.70609971		 0.00005155		 0.00023618		-0.00000000	
Mg		2.33218383		2.26810381		4.70609971		-0.00005155		 0.00023618		0.00000000	
Mg		2.41381503		7.91189586		1.56870006		 0.00005155		-0.00023618		0.00000000	
O		3.63590997		0.93554192		1.56870006		-0.00076155		-0.00024587		0.00000000	
O		1.11008888		9.24445775		4.70609971		 0.00076155		 0.00024587		0.00000000	
O		1.26291102		4.15445791		4.70609971		-0.00076155		 0.00024587		0.00000000	
O		3.48308878		6.02554176		1.56870006		 0.00076155		-0.00024587		0.00000000	
O		1.04506916		4.54944185		1.56870006		-0.00027909		 0.00044993		0.00000000	
O		3.70093065		5.63055782		4.70609971		 0.00027909		-0.00044993		0.00000000	
O		3.41806906		0.54055799		4.70609971		-0.00027909		-0.00044993		0.00000000	
O		1.32793074		9.63944168		1.56870006		 0.00027909		 0.00044993		0.00000000	
O		1.31796415		1.65730408		0.20895118		-0.00044141		-0.00086993		 0.00025307	
O		3.42803566		8.52269559		6.06584858		 0.00044141		 0.00086993		-0.00025307	
O		3.69096405		3.43269575		6.06584858		-0.00044141		 0.00086993		-0.00025307	
O		1.05503576		6.74730392		0.20895118		 0.00044141		-0.00086993		 0.00025307	
O		3.42803566		8.52269559		3.34635083		 0.00044141		 0.00086993		 0.00025307	
O		1.31796415		1.65730408		2.92844894		-0.00044141		-0.00086993		-0.00025307	
O		1.05503576		6.74730392		2.92844894		 0.00044141		-0.00086993		-0.00025307	
O		3.69096405		3.43269575		3.34635083		-0.00044141		 0.00086993		 0.00025307	
