# total energy = -20635.887365 eV	

CRYSTAL	
PRIMVEC	
		4.74599980		0.00000000		0.00000000	
		0.00000000		10.17999872		0.00000000	
		0.00000000		0.00000000		5.37839953	
PRIMCOORD
   28 1	
Si		2.02227004		0.95590179		1.34460012		-0.00004516		 0.00024497		0.00000000	
Si		2.72372881		9.22409741		4.03379989		 0.00004516		-0.00024497		0.00000000	
Si		4.39527089		4.13409805		4.03379989		-0.00004516		-0.00024497		0.00000000	
Si		0.35072891		6.04590162		1.34460012		 0.00004516		 0.00024497		0.00000000	
Mg		0.00000000		0.00000000		0.00000000		0.00000000		0.00000000		0.00000000	
Mg		2.37299990		5.08999984		0.00000000		0.00000000		0.00000000		0.00000000	
Mg		0.00000000		0.00000000		2.68919977		0.00000000		0.00000000		0.00000000	
Mg		2.37299990		5.08999984		2.68919977		0.00000000		0.00000000		-0.00000000	
Mg		4.70518373		2.82189602		1.34460012		-0.00053062		 0.00060855		-0.00000000	
Mg		0.04081607		7.35810365		4.03379989		 0.00053062		-0.00060855		0.00000000	
Mg		2.33218383		2.26810381		4.03379989		-0.00053062		-0.00060855		0.00000000	
Mg		2.41381503		7.91189586		1.34460012		 0.00053062		 0.00060855		0.00000000	
O		3.63590997		0.93554192		1.34460012		 0.00016077		 0.00041197		-0.00000000	
O		1.11008888		9.24445775		4.03379989		-0.00016077		-0.00041197		-0.00000000	
O		1.26291102		4.15445791		4.03379989		 0.00016077		-0.00041197		0.00000000	
O		3.48308878		6.02554176		1.34460012		-0.00016077		 0.00041197		0.00000000	
O		1.04506916		4.54944185		1.34460012		-0.00011422		 0.00003709		-0.00000000	
O		3.70093065		5.63055782		4.03379989		 0.00011422		-0.00003709		-0.00000000	
O		3.41806906		0.54055799		4.03379989		-0.00011422		-0.00003709		0.00000000	
O		1.32793074		9.63944168		1.34460012		 0.00011422		 0.00003709		0.00000000	
O		1.31796415		1.65730408		0.17910122		-0.00040794		-0.00025532		 0.00046601	
O		3.42803566		8.52269559		5.19929879		 0.00040794		 0.00025532		-0.00046601	
O		3.69096405		3.43269575		5.19929879		-0.00040794		 0.00025532		-0.00046601	
O		1.05503576		6.74730392		0.17910122		 0.00040794		-0.00025532		 0.00046601	
O		3.42803566		8.52269559		2.86830098		 0.00040794		 0.00025532		 0.00046601	
O		1.31796415		1.65730408		2.51009902		-0.00040794		-0.00025532		-0.00046601	
O		1.05503576		6.74730392		2.51009902		 0.00040794		-0.00025532		-0.00046601	
O		3.69096405		3.43269575		2.86830098		-0.00040794		 0.00025532		 0.00046601	
