# total energy = -8279.0730718 eV	

CRYSTAL	
PRIMVEC	
		4.21099994		0.16843983		0.00000000	
		0.16843983		4.21099994		0.00000000	
		0.00000000		0.00000000		4.21099994	
PRIMCOORD
   8 1	
Mg		0.00000000		0.00000000		0.00000000		0.00000000		0.00000000		0.00000000	
Mg		0.08421991		2.10549997		2.10549997		0.00000000		0.00000000		0.00000000	
Mg		2.10549997		0.08421991		2.10549997		0.00000000		0.00000000		0.00000000	
Mg		2.18971989		2.18971989		0.00000000		0.00000000		0.00000000		0.00000000	
O		2.18971989		2.18971989		2.10549997		0.00000000		0.00000000		0.00000000	
O		2.10549997		0.08421991		0.00000000		0.00000000		0.00000000		0.00000000	
O		0.08421991		2.10549997		0.00000000		0.00000000		0.00000000		0.00000000	
O		0.00000000		0.00000000		2.10549997		0.00000000		0.00000000		0.00000000	
