# total energy = -8275.47312552 eV	

CRYSTAL	
PRIMVEC	
		4.21100160		0.67376213		0.00000000	
		0.67376213		4.21100160		0.00000000	
		0.00000000		0.00000000		4.21100160	
PRIMCOORD
   8 1	
Mg		0.00000000		0.00000000		0.00000000		0.00000000		0.00000000		0.00000000	
Mg		0.33688021		2.10549994		2.10549994		0.00000000		0.00000000		0.00000000	
Mg		2.10549994		0.33688021		2.10549994		0.00000000		0.00000000		0.00000000	
Mg		2.44238016		2.44238016		0.00000000		0.00000000		0.00000000		0.00000000	
O		2.44238016		2.44238016		2.10549994		0.00000000		0.00000000		0.00000000	
O		2.10549994		0.33688021		0.00000000		0.00000000		0.00000000		0.00000000	
O		0.33688021		2.10549994		0.00000000		0.00000000		0.00000000		0.00000000	
O		0.00000000		0.00000000		2.10549994		0.00000000		0.00000000		0.00000000	
