# total energy = -24715.206274 eV

CRYSTAL
PRIMVEC
		9.27320348		0.00000000		-1.48371669
		0.00000000		8.72660117		0.00000000
		-0.85147651		0.00000000		5.32170000
PRIMECORD
   40 1
Mg		-0.21286819		7.89582745		1.33042500		0.00000000		 0.00058956		0.00000000
Mg		-0.63860362		0.83077185		3.99127500		0.00000000		-0.00058956		0.00000000
Mg		3.99799624		5.19407243		3.24941947		0.00000000		-0.00067352		0.00000000
Mg		4.42373168		3.53252780		0.58856853		0.00000000		 0.00067352		0.00000000
Mg		-0.21286819		2.30993101		1.33042500		0.00000000		-0.00028205		0.00000000
Mg		-0.63860362		6.41666922		3.99127500		0.00000000		 0.00028205		0.00000000
Mg		3.99799624		2.05336863		3.24941947		0.00000000		 0.00040657		0.00000000
Mg		4.42373168		6.67323066		0.58856853		0.00000000		-0.00040657		0.00000000
Si		2.64921155		0.79935658		-0.07852220		 0.00019536		-0.00037393		 0.00022608
Si		5.77251637		7.92724271		3.91651020		-0.00019536		 0.00037393		-0.00022608
Si		1.44823600		3.56394307		2.70636701		-0.00022929		 0.00000322		-0.00011380
Si		6.97349192		5.16265623		1.13162193		 0.00022929		-0.00000322		 0.00011380
Si		6.19825180		0.79935658		1.25566020		-0.00019536		-0.00037393		-0.00022608
Si		2.22347611		7.92724271		2.58232780		 0.00019536		 0.00037393		 0.00022608
Si		6.54775648		3.56394307		3.79247193		 0.00022929		 0.00000322		 0.00011380
Si		1.87397237		5.16265623		0.04551607		-0.00022929		-0.00000322		-0.00011380
O		1.02030961		0.81681003		0.24743888		 0.00020577		 0.00029384		 0.00008917
O		7.40141925		7.90979020		3.59054912		-0.00020577		-0.00029384		-0.00008917
O		3.05568105		3.54648962		2.51451245		-0.00023236		 0.00027555		-0.00002434
O		5.36604687		5.18010873		1.32347555		 0.00023236		-0.00027555		 0.00002434
O		7.82715375		0.81681003		0.92969913		-0.00020577		 0.00029384		-0.00008917
O		0.59457417		7.90979020		2.90828888		 0.00020577		-0.00029384		 0.00008917
O		4.94031143		3.54648962		3.98432555		 0.00023236		 0.00027555		 0.00002434
O		3.48141742		5.18010873		-0.14633755		-0.00023236		-0.00027555		-0.00002434
O		3.43361179		2.18688633		-0.18639454		-0.00018415		-0.00046490		 0.00020203
O		4.98811613		6.53971390		4.02438255		 0.00018415		 0.00046490		-0.00020203
O		0.65804612		2.17641426		2.85042720		 0.00012263		-0.00030610		-0.00036749
O		7.76368180		6.55018597		0.98756080		-0.00012263		 0.00030610		 0.00036749
O		5.41385156		2.18688633		1.36353255		 0.00018415		-0.00046490		-0.00020203
O		3.00787635		6.53971390		2.47445545		-0.00018415		 0.00046490		 0.00020203
O		7.33794637		2.17641426		3.64841080		-0.00012263		-0.00030610		 0.00036749
O		1.08378155		6.55018597		0.18957720		 0.00012263		 0.00030610		-0.00036749
O		3.00122930		8.50232556		1.01943999		 0.00035688		-0.00010696		-0.00012404
O		5.42049862		0.22427280		2.81854801		-0.00035688		 0.00010696		 0.00012404
O		0.71714366		4.58757338		3.97762590		-0.00016191		 0.00010973		-0.00023883
O		7.70458425		4.13902591		-0.13963790		 0.00016191		-0.00010973		 0.00023883
O		5.84623499		8.50232556		0.15769802		-0.00035688		-0.00010696		 0.00012404
O		2.57549292		0.22427280		3.68028998		 0.00035688		 0.00010696		-0.00012404
O		7.27884788		4.58757338		2.52121210		 0.00016191		 0.00010973		 0.00023883
O		1.14288004		4.13902591		1.31677591		-0.00016191		-0.00010973		-0.00023883
