# total energy = -24716.255028 eV

CRYSTAL
PRIMVEC
		9.27320033		0.00000000		-0.37092764
		0.00000000		8.72659991		0.00000000
		-0.21286948		0.00000000		5.32169984
PRIMECORD
   40 1
Mg		-0.05321691		7.89582705		1.33042542		0.00000000		 0.00003507		0.00000000
Mg		-0.15965072		0.83077193		3.99127535		0.00000000		-0.00003507		0.00000000
Mg		4.47694852		5.19407189		3.80581060		0.00000000		 0.00061579		0.00000000
Mg		4.58338326		3.53252802		1.14496068		0.00000000		-0.00061579		0.00000000
Mg		-0.05321691		2.30993129		1.33042542		0.00000000		 0.00039552		0.00000000
Mg		-0.15965072		6.41666863		3.99127535		0.00000000		-0.00039552		0.00000000
Mg		4.47694852		2.05336867		3.80581060		0.00000000		-0.00004658		0.00000000
Mg		4.58338326		6.67323124		1.14496068		0.00000000		 0.00004658		0.00000000
Si		2.69174323		0.79935705		0.24618782		 0.00035418		-0.00008521		-0.00031124
Si		6.36858854		7.92724287		4.70458439		-0.00035418		 0.00008521		 0.00031124
Si		1.81006898		3.56394291		2.93804799		 0.00013631		-0.00037052		-0.00014747
Si		7.25026280		5.16265608		2.01272421		-0.00013631		 0.00037052		 0.00014747
Si		6.47502328		0.79935705		2.04373354		-0.00035418		-0.00008521		 0.00031124
Si		2.58530942		7.92724287		2.90703867		 0.00035418		 0.00008521		-0.00031124
Si		7.14382898		3.56394291		4.67357414		-0.00013631		-0.00037052		 0.00014747
Si		1.91650279		5.16265608		0.27719807		 0.00013631		 0.00037052		-0.00014747
O		1.07088744		0.81681018		0.37796884		-0.00001739		 0.00081648		-0.00022431
O		7.98944526		7.90978974		4.57280336		 0.00001739		-0.00081648		 0.00022431
O		3.42555965		3.54648978		2.94037464		 0.00016728		-0.00024535		-0.00007245
O		5.63477120		5.18010920		2.01039756		-0.00016728		 0.00024535		 0.00007245
O		8.09587907		0.81681018		1.91195343		 0.00001739		 0.00081648		 0.00022431
O		0.96445270		7.90978974		3.03881877		-0.00001739		-0.00081648		-0.00022431
O		5.52833739		3.54648978		4.67124656		-0.00016728		-0.00024535		 0.00007245
O		3.53199439		5.18010920		0.27952472		 0.00016728		 0.00024535		-0.00007245
O		3.47831438		2.18688610		0.23279032		-0.00049145		-0.00087489		 0.00000209
O		5.58201833		6.53971381		4.71798188		 0.00049145		 0.00087489		-0.00000209
O		1.02205099		2.17641386		2.98763432		-0.00007440		-0.00032379		 0.00026003
O		8.03828172		6.55018606		1.96313789		 0.00007440		 0.00032379		-0.00026003
O		5.68845214		2.18688610		2.05713196		 0.00049145		-0.00087489		-0.00000209
O		3.37187964		6.53971381		2.89364024		-0.00049145		 0.00087489		 0.00000209
O		7.93184791		2.17641386		4.62398874		 0.00007440		-0.00032379		-0.00026003
O		1.12848480		6.55018606		0.32678439		-0.00007440		 0.00032379		 0.00026003
O		3.18591281		8.50232549		1.40913711		 0.00005464		 0.00018425		-0.00009927
O		5.87441897		0.22427257		3.54163509		-0.00005464		-0.00018425		 0.00009927
O		1.22113040		4.58757253		4.14432105		 0.00012967		-0.00031988		-0.00045843
O		7.83920231		4.13902553		0.80645115		-0.00012967		 0.00031988		 0.00045843
O		5.98085278		8.50232549		0.88078517		-0.00005464		 0.00018425		 0.00009927
O		3.07947900		0.22427257		4.06998703		 0.00005464		-0.00018425		-0.00009927
O		7.73276757		4.58757253		3.46730107		-0.00012967		-0.00031988		 0.00045843
O		1.32756421		4.13902553		1.48347113		 0.00012967		 0.00031988		-0.00045843
