# total energy = -24715.4179088 eV

CRYSTAL
PRIMVEC
		9.27319719		0.00000000		0.74185391
		0.00000000		8.72660031		0.00000000
		0.42573456		0.00000000		5.32170062
PRIMECORD
   40 1
Mg		0.10643364		7.89582718		1.33042515		0.00000000		 0.00087196		0.00000000
Mg		0.31930185		0.83077219		3.99127453		0.00000000		-0.00087196		0.00000000
Mg		4.95590231		5.19407142		4.36220335		0.00000000		 0.00088270		0.00000000
Mg		4.74303410		3.53252796		1.70135304		0.00000000		-0.00088270		0.00000000
Mg		0.10643364		2.30993094		1.33042515		0.00000000		-0.00023903		0.00000000
Mg		0.31930185		6.41666844		3.99127453		0.00000000		 0.00023903		0.00000000
Mg		4.95590231		2.05336921		4.36220335		0.00000000		-0.00024171		0.00000000
Mg		4.74303410		6.67323109		1.70135304		0.00000000		 0.00024171		0.00000000
Si		2.73427380		0.79935655		0.57089866		-0.00012034		-0.00069769		-0.00011779
Si		6.96466168		7.92724283		5.49265680		 0.00012034		 0.00069769		 0.00011779
Si		2.17190211		3.56394268		3.16972981		 0.00017341		-0.00025825		 0.00025285
Si		7.52703336		5.16265577		2.89382565		-0.00017341		 0.00025825		-0.00025285
Si		6.75179346		0.79935655		2.83180649		 0.00012034		-0.00069769		 0.00011779
Si		2.94714201		7.92724283		3.23174897		-0.00012034		 0.00069769		-0.00011779
Si		7.73990157		3.56394268		5.55467596		-0.00017341		-0.00025825		-0.00025285
Si		1.95903390		5.16265577		0.50888044		 0.00017341		 0.00025825		 0.00025285
O		1.12146506		0.81680958		0.50849809		 0.00007686		 0.00001707		 0.00012896
O		8.57747134		7.90978980		5.55505830		-0.00007686		-0.00001707		-0.00012896
O		3.79543980		3.54648964		3.36623714		 0.00012409		 0.00047977		 0.00028784
O		5.90349568		5.18010880		2.69731925		-0.00012409		-0.00047977		-0.00028784
O		8.36460406		0.81680958		2.89420799		-0.00007686		 0.00001707		-0.00012896
O		1.33433327		7.90978980		3.16934933		 0.00007686		-0.00001707		 0.00012896
O		6.11636389		3.54648964		5.35816863		-0.00012409		 0.00047977		-0.00028784
O		3.58257159		5.18010880		0.70538683		 0.00012409		-0.00047977		 0.00028784
O		3.52301582		2.18688617		0.65197558		-0.00043181		-0.00061033		-0.00055965
O		6.17591965		6.53971413		5.41157988		 0.00043181		 0.00061033		 0.00055965
O		1.38605513		2.17641398		3.12483995		 0.00047377		-0.00020292		 0.00010314
O		8.31288035		6.55018540		2.93871551		-0.00047377		 0.00020292		-0.00010314
O		5.96305144		2.18688617		2.75072957		 0.00043181		-0.00061033		 0.00055965
O		3.73588403		6.53971413		3.31282589		-0.00043181		 0.00061033		-0.00055965
O		8.52574856		2.17641398		5.59956582		-0.00047377		-0.00020292		-0.00010314
O		1.17318692		6.55018540		0.46398964		 0.00047377		 0.00020292		 0.00010314
O		3.37059738		8.50232590		1.79883364		-0.00051909		 0.00009293		 0.00010164
O		6.32833903		0.22427255		4.26472182		 0.00051909		-0.00009293		-0.00010164
O		1.72511618		4.58757270		4.31101548		 0.00023851		 0.00023995		 0.00023428
O		7.97382022		4.13902575		1.75253999		-0.00023851		-0.00023995		-0.00023428
O		6.11547082		8.50232590		1.60387151		 0.00051909		 0.00009293		-0.00010164
O		3.58346466		0.22427255		4.45968395		-0.00051909		-0.00009293		 0.00010164
O		8.18668750		4.58757270		4.41339029		-0.00023851		 0.00023995		-0.00023428
O		1.51224797		4.13902575		1.65016610		 0.00023851		-0.00023995		 0.00023428
