# total energy = -24716.8744438 eV

CRYSTAL
PRIMVEC
		9.61326956		0.00000000		0.00000000
		0.00000000		8.82246278		0.00000000
		-1.62743040		0.00000000		4.91196737
PRIMECORD
   40 1
Mg		2.03778627		5.76459613		1.07424827		-0.00015541		-0.00025589		-0.00036211
Mg		5.94805577		3.05786473		3.83772199		 0.00015541		 0.00025589		 0.00036211
Mg		6.76177001		1.35336474		1.38173734		 0.00015541		-0.00025589		 0.00036211
Mg		1.22407203		7.46909419		3.53023291		-0.00015541		 0.00025589		-0.00036211
Mg		2.11556628		0.10675247		1.06000332		 0.00026465		-0.00014678		-0.00002242
Mg		5.87027576		8.71570838		3.85196693		-0.00026465		 0.00014678		 0.00002242
Mg		6.68399000		4.51798194		1.39598229		-0.00026465		-0.00014678		 0.00002242
Mg		1.30185204		4.30447795		3.51598797		 0.00026465		 0.00014678		-0.00002242
Si		-0.04067759		2.99610716		1.46327614		-0.00021905		-0.00071488		 0.00020239
Si		8.02651963		5.82635273		3.44869412		 0.00021905		 0.00071488		-0.00020239
Si		8.84023387		7.40733663		0.99270851		 0.00021905		-0.00071488		-0.00020239
Si		-0.85439087		1.41512327		3.91926078		-0.00021905		 0.00071488		 0.00020239
Si		4.94609063		7.39057493		1.11108824		 0.00005681		-0.00002748		 0.00059689
Si		3.03975044		1.43188496		3.80088202		-0.00005681		 0.00002748		-0.00059689
Si		3.85346468		2.97934450		1.34489737		-0.00005681		-0.00002748		-0.00059689
Si		4.13237736		5.84311443		3.56707192		 0.00005681		 0.00002748		 0.00059689
O		8.04909831		3.00757675		0.92295944		 0.00031452		 0.00013940		 0.00052980
O		-0.06325724		5.81488314		3.98901082		-0.00031452		-0.00013940		-0.00052980
O		0.75045700		7.41880622		1.53302617		-0.00031452		 0.00013940		-0.00052980
O		7.23538503		1.40365271		3.37894408		 0.00031452		-0.00013940		 0.00052980
O		0.68054066		4.41652253		1.57576004		 0.00012034		-0.00049379		-0.00008347
O		7.30530042		4.40593640		3.33621022		-0.00012034		 0.00049379		 0.00008347
O		8.11901466		0.00529307		0.88022461		-0.00012034		-0.00049379		 0.00008347
O		-0.13317262		8.81716683		4.03174469		 0.00012034		 0.00049379		-0.00008347
O		0.00731378		2.47911129		3.00710762		-0.00093753		 0.00009428		-0.00023640
O		7.97852730		6.34334860		1.90486167		 0.00093753		-0.00009428		 0.00023640
O		7.16481402		6.89034172		4.36084632		 0.00093753		 0.00009428		 0.00023640
O		0.82102802		1.93211914		0.55112298		-0.00093753		-0.00009428		-0.00023640
O		3.39361874		7.39233896		0.62922310		 0.00061181		 0.00015873		-0.00061284
O		4.59222234		1.43012093		4.28274716		-0.00061181		-0.00015873		 0.00061284
O		5.40593658		2.98110854		1.82676155		-0.00061181		 0.00015873		 0.00061284
O		2.57990450		5.84135040		3.08520775		 0.00061181		-0.00015873		-0.00061284
O		5.47592118		8.61424993		1.95791058		 0.00058804		 0.00027811		-0.00050769
O		2.50992086		0.20820996		2.95405872		-0.00058804		-0.00027811		 0.00050769
O		3.32363510		4.20301951		0.49807407		-0.00058804		 0.00027811		 0.00050769
O		4.66220790		4.61943943		4.41389619		 0.00058804		-0.00027811		-0.00050769
O		5.07876145		6.13160961		2.20203571		 0.00037152		-0.00000850		 0.00035015
O		2.90707963		2.69085028		2.70993358		-0.00037152		 0.00000850		-0.00035015
O		3.72079387		1.72038015		0.25394894		-0.00037152		-0.00000850		-0.00035015
O		4.26504817		7.10208071		4.65802036		 0.00037152		 0.00000850		 0.00035015
