# total energy = -13383.8720466 eV

CRYSTAL
PRIMVEC
		2.82402504		0.00000000		0.00000000
		-1.41201252		2.64397650		0.00000000
		0.00000000		0.00000000		20.12499930
PRIMECORD
   18 1
O		0.00000000		0.00000000		6.26491316		0.00000000		-0.00006004		-0.00032781
O		0.00000000		0.00000000		13.86008727		0.00000000		 0.00006004		 0.00032781
O		1.41201308		0.88132512		8.61752511		0.00000000		 0.00065209		-0.00038387
O		0.00000000		1.76264996		11.50747504		0.00000000		-0.00065209		 0.00038387
O		1.41201308		0.88132512		1.44497510		0.00000000		-0.00079671		 0.00045129
O		0.00000000		1.76264996		18.68002532		-0.00000000		 0.00079671		-0.00045129
O		0.00000000		1.76264996		3.79758818		0.00000000		 0.00000393		 0.00000236
O		1.41201195		0.88132512		16.32741224		0.00000000		-0.00000393		-0.00000236
H		1.41201308		0.88132512		9.60767517		0.00000000		-0.00040954		-0.00080923
H		0.00000000		1.76264996		10.51732526		0.00000000		 0.00040954		 0.00080923
H		1.41201308		0.88132512		0.45482505		-0.00000000		-0.00082685		 0.00015368
H		0.00000000		1.76264996		19.67017538		-0.00000000		 0.00082685		-0.00015368
Mg		0.00000000		1.76264996		7.50461299		0.00000000		-0.00027656		 0.00046800
Mg		1.41201195		0.88132512		12.62038716		0.00000000		 0.00027656		-0.00046800
Mg		0.00000000		0.00000000		2.55788807		-0.00000000		 0.00024483		-0.00075191
Mg		0.00000000		0.00000000		17.56711320		-0.00000000		-0.00024483		 0.00075191
Mg		1.41201308		0.88132512		5.03326208		0.00000000		 0.00001667		-0.00026272
Mg		0.00000000		1.76264996		15.09173721		0.00000000		-0.00001667		 0.00026272
