# total energy = -13384.4626735 eV

CRYSTAL
PRIMVEC
		3.12932483		0.00000000		0.00000000
		-1.56466241		2.64397593		0.00000000
		0.00000000		0.00000000		20.12499777
PRIMECORD
   18 1
O		0.00000000		0.00000000		6.26491268		-0.00000000		 0.00023656		 0.00002033
O		0.00000000		0.00000000		13.86008633		-0.00000000		-0.00023656		-0.00002033
O		1.56466304		0.88132489		8.61752438		0.00000000		-0.00082697		-0.00014687
O		0.00000000		1.76264979		11.50747432		0.00000000		 0.00082697		 0.00014687
O		1.56466304		0.88132489		1.44497481		0.00000000		 0.00080145		-0.00028278
O		0.00000000		1.76264979		18.68002389		0.00000000		-0.00080145		 0.00028278
O		0.00000000		1.76264979		3.79758776		0.00000000		-0.00032589		-0.00073197
O		1.56466179		0.88132489		16.32741094		0.00000000		 0.00032589		 0.00073197
H		1.56466304		0.88132489		9.60767436		0.00000000		-0.00025954		-0.00040538
H		0.00000000		1.76264979		10.51732434		0.00000000		 0.00025954		 0.00040538
H		1.56466304		0.88132489		0.45482483		-0.00000000		 0.00015893		 0.00010845
H		0.00000000		1.76264979		19.67017387		-0.00000000		-0.00015893		-0.00010845
Mg		0.00000000		1.76264979		7.50461255		-0.00000000		 0.00041313		-0.00009369
Mg		1.56466179		0.88132489		12.62038615		-0.00000000		-0.00041313		 0.00009369
Mg		0.00000000		0.00000000		2.55788790		-0.00000000		-0.00038974		-0.00036156
Mg		0.00000000		0.00000000		17.56711206		-0.00000000		 0.00038974		 0.00036156
Mg		1.56466304		0.88132489		5.03326175		0.00000000		-0.00005766		-0.00031741
Mg		0.00000000		1.76264979		15.09173601		0.00000000		 0.00005766		 0.00031741
