# total energy = -18535.1798967 eV	

CRYSTAL	
PRIMVEC	
		4.77987943		0.00000000		0.00000000	
		-2.38993972		4.13950003		0.00000000	
		0.00000000		0.00000000		13.73762317	
PRIMCOORD
   30 1	
O		1.45225282		0.15047074		3.29819994		-0.00009406		 0.00015820		 0.00005951	
O		0.93768783		3.98902835		10.43942417		 0.00009424		-0.00015803		-0.00005995	
O		3.92344356		1.18245215		3.29819994		-0.00008999		-0.00016067		 0.00005944	
O		-1.53350337		2.95704695		10.43942417		 0.00008980		 0.00016049		-0.00006009	
O		1.79412558		2.80657573		3.29819947		 0.00018405		 0.00000236		 0.00005961	
O		0.59581507		1.33292289		10.43942464		-0.00018411		-0.00000242		-0.00006012	
O		3.84222299		1.53030846		7.87769194		-0.00009528		 0.00015794		-0.00001293	
O		0.93759318		1.22951130		1.28075178		 0.00008518		-0.00014260		-0.00007104	
O		1.53348416		2.56230907		7.87769194		-0.00008919		-0.00016136		-0.00001271	
O		3.24629639		0.19722437		1.28075131		 0.00008100		 0.00014499		-0.00007086	
O		1.79411480		0.04688203		7.87769194		 0.00018425		 0.00000364		-0.00001279	
O		2.98593192		2.71276295		1.28075131		-0.00016594		-0.00000244		-0.00007125	
O		1.45234701		2.90998732		12.45687233		-0.00008516		 0.00014273		 0.00007067	
O		-1.45228234		2.60919110		5.85993170		 0.00009510		-0.00015824		 0.00001374	
O		-0.85635621		3.94227472		12.45687280		-0.00008099		-0.00014488		 0.00007064	
O		0.85645602		1.57719049		5.85993170		 0.00008938		 0.00016137		 0.00001359	
O		-0.59599173		1.42673567		12.45687280		 0.00016614		 0.00000228		 0.00007069	
O		0.59582585		4.09261707		5.85993170		-0.00018444		-0.00000341		 0.00001382	
Mg		0.00000000		0.00000000		4.94091195		-0.00000009		-0.00000002		 0.00056003	
Mg		0.00000000		0.00000000		8.79671216		 0.00000001		 0.00000003		-0.00056027	
Mg		2.38994018		1.37983303		9.52073245		 0.00000004		-0.00000005		 0.00035519	
Mg		2.38994018		1.37983303		13.37690519		 0.00000002		 0.00000006		-0.00076915	
Mg		0.00000000		2.75966559		0.36071845		 0.00000006		 0.00000004		 0.00076926	
Mg		0.00000000		2.75966559		4.21689166		-0.00000004		-0.00000004		-0.00035506	
Si		0.00000000		0.00000000		2.17033735		 0.00000009		-0.00000004		-0.00044196	
Si		0.00000000		0.00000000		11.56728582		 0.00000002		-0.00000004		 0.00044344	
Si		2.38994065		1.37983303		6.74979843		-0.00000008		-0.00000006		-0.00044943	
Si		2.38994065		1.37983303		2.40868090		-0.00000005		 0.00000016		 0.00046791	
Si		0.00000000		2.75966606		11.32894274		 0.00000001		-0.00000005		-0.00046643	
Si		0.00000000		2.75966606		6.98782662		 0.00000002		0.00000000		 0.00044651	
