# total energy = -7657.96690449 eV

CRYSTAL
PRIMVEC
		5.54070079		0.00000000		0.66488276
		-2.77034760		4.79838928		-0.33244417
		0.58122064		0.00000000		4.84350164
PRIMECORD
   15 1
Mg		0.00000000		0.00000000		0.00000000		0.00000000		0.00000000		0.00000000
Mg		0.00633493		3.19892507		0.05279385		 0.00019580		 0.00003436		 0.00016699
Mg		3.34523499		1.59946198		5.12314805		-0.00019580		-0.00003436		-0.00016699
O		1.04097609		1.60554020		1.17514295		 0.00017209		-0.00013319		 0.00001902
O		2.31059383		3.19284685		4.00079895		-0.00017209		 0.00013319		-0.00001902
O		1.05122570		4.78639076		1.17637288		 0.00017376		 0.00013902		-0.00056968
O		2.30034422		0.01199574		3.99956902		-0.00017376		-0.00013902		 0.00056968
O		-1.70859717		3.20484202		0.84519380		-0.00049558		-0.00044206		-0.00067770
O		5.06016709		1.59354391		4.33074810		 0.00049558		 0.00044206		 0.00067770
H		1.03122314		1.67607710		2.13827120		-0.00041266		-0.00032257		 0.00033860
H		2.32034678		3.12230995		3.03767071		 0.00041266		 0.00032257		-0.00033860
H		1.17112614		4.64099994		2.15505887		 0.00022556		-0.00024285		 0.00091577
H		2.18044378		0.15738711		3.02088304		-0.00022556		 0.00024285		-0.00091577
H		-1.46652393		3.27969707		1.83854075		 0.00014252		 0.00006739		 0.00037449
H		4.81809497		1.51868887		3.33740116		-0.00014252		-0.00006739		-0.00037449
