# total energy = -7658.29908966 eV

CRYSTAL
PRIMVEC
		5.54069813		0.00000000		0.44325474
		-2.77035184		4.79838471		-0.22163015
		0.38748174		0.00000000		4.84350225
PRIMECORD
   15 1
Mg		0.00000000		0.00000000		0.00000000		0.00000000		0.00000000		0.00000000
Mg		0.00422383		3.19892462		0.05279425		 0.00076082		 0.00002090		 0.00018908
Mg		3.15360586		1.59946175		5.01233370		-0.00076082		-0.00002090		-0.00018908
O		0.99835286		1.60553987		1.13861912		-0.00033973		 0.00004785		 0.00046667
O		2.15947683		3.19284706		3.92650883		 0.00033973		-0.00004785		-0.00046667
O		1.00860310		4.78639079		1.13943899		-0.00010179		-0.00001235		 0.00072120
O		2.14922714		0.01199614		3.92568897		 0.00010179		 0.00001235		-0.00072120
O		-1.75121890		3.20484154		0.91865316		 0.00012975		-0.00007939		 0.00058121
O		4.90904859		1.59354372		4.14647480		-0.00012975		 0.00007939		-0.00058121
H		0.94946505		1.67607709		2.10683266		 0.00007710		 0.00017054		 0.00004052
H		2.20836464		3.12230983		2.95829474		-0.00007710		-0.00017054		-0.00004052
H		1.08936668		4.64099967		2.11802505		-0.00054421		-0.00051153		 0.00011360
H		2.06846190		0.15738725		2.94710290		 0.00054421		 0.00051153		-0.00011360
H		-1.54828277		3.27969653		1.90701312		-0.00038444		 0.00035659		 0.00025223
H		4.70611246		1.51868873		3.15811483		 0.00038444		-0.00035659		-0.00025223
