# total energy = -7658.4903615 eV

CRYSTAL
PRIMVEC
		5.54070037		0.00000000		-0.22162779
		-2.77034741		4.79838478		0.11081390
		-0.19374133		0.00000000		4.84349997
PRIMECORD
   15 1
Mg		0.00000000		0.00000000		0.00000000		0.00000000		0.00000000		0.00000000
Mg		-0.00211214		3.19892504		0.05279408		 0.00086378		 0.00000004		 0.00044263
Mg		2.57872211		1.59946196		4.67989199		-0.00086378		-0.00000004		-0.00044263
O		0.87048519		1.60553998		1.02904599		 0.00008000		 0.00007900		-0.00009300
O		1.70612478		3.19284702		3.70364008		-0.00008000		-0.00007900		 0.00009300
O		0.88073481		4.78639122		1.02863620		-0.00005323		-0.00003531		-0.00056888
O		1.69587516		0.01199578		3.70404987		 0.00005323		 0.00003531		 0.00056888
O		-1.87908795		3.20484225		1.13902923		-0.00035012		-0.00000008		-0.00009425
O		4.45569791		1.59354420		3.59365685		 0.00035012		 0.00000008		 0.00009425
H		0.70419004		1.67607682		2.01251932		 0.00010760		-0.00015073		 0.00015873
H		1.87241993		3.12231018		2.72016731		-0.00010760		 0.00015073		-0.00015873
H		0.84409203		4.64100010		2.00692318		 0.00020865		 0.00032232		 0.00057140
H		1.73251683		0.15738690		2.72576290		-0.00020865		-0.00032232		-0.00057140
H		-1.79355818		3.27969708		2.11242927		 0.00019363		-0.00018901		 0.00017470
H		4.37016815		1.51868881		2.62025680		-0.00019363		 0.00018901		-0.00017470
