# total energy = -7657.51336229 eV

CRYSTAL
PRIMVEC
		5.54070206		0.00000000		0.88651480
		-2.77034822		4.79838879		-0.44325459
		0.77495907		0.00000000		4.84350262
PRIMECORD
   15 1
Mg		0.00000000		0.00000000		0.00000000		0.00000000		0.00000000		0.00000000
Mg		0.00844706		3.19892511		0.05279384		 0.00078436		-0.00086914		 0.00022490
Mg		3.53686304		1.59946199		5.23396225		-0.00078436		 0.00086914		-0.00022490
O		1.08359882		1.60554002		1.21166711		 0.00017239		-0.00028873		-0.00042404
O		2.46171127		3.19284709		4.07508898		-0.00017239		 0.00028873		 0.00042404
O		1.09384875		4.78639098		1.21330726		-0.00034673		-0.00006727		-0.00048466
O		2.45146078		0.01199613		4.07344883		 0.00034673		 0.00006727		 0.00048466
O		-1.66597403		3.20484209		0.77173601		-0.00038243		-0.00089122		-0.00073194
O		5.21128413		1.59354389		4.51502007		 0.00038243		 0.00089122		 0.00073194
H		1.11298117		1.67607695		2.16970921		-0.00038325		 0.00018699		 0.00061475
H		2.43232893		3.12231016		3.11704688		 0.00038325		-0.00018699		-0.00061475
H		1.25288398		4.64099988		2.19209274		-0.00026526		 0.00001642		 0.00087243
H		2.29242612		0.15738722		3.09466279		 0.00026526		-0.00001642		-0.00087243
H		-1.38476618		3.27969682		1.77006914		 0.00058129		-0.00004426		 0.00030737
H		4.93007572		1.51868916		3.51668695		-0.00058129		 0.00004426		-0.00030737
