# total energy = -9074.45713404 eV

CRYSTAL
PRIMVEC
		4.60179002		0.00000000		0.00000000
		0.00000000		5.18980215		0.00000000
		-0.00345594		0.00000000		7.33029716
PRIMECORD
   28 1
Mg		3.49189211		2.66755690		1.83990517		 0.00021429		-0.00077585		-0.00062413
Mg		1.10644381		0.07265720		5.49039383		-0.00021429		-0.00077585		 0.00062413
Si		1.14958421		0.06746684		1.83257498		 0.00008981		-0.00002716		-0.00012146
Si		3.44875217		2.66236700		5.49772402		-0.00008981		-0.00002716		 0.00012146
O		1.66878485		5.07043401		3.53320422		 0.00027643		 0.00007258		-0.00057962
O		2.92955107		2.47553386		3.79709479		-0.00027643		 0.00007258		 0.00057962
O		3.96796707		2.85439003		7.16903203		-0.00025324		-0.00011486		 0.00043159
O		0.63036884		0.25948988		0.16126697		 0.00025324		-0.00011486		-0.00043159
O		4.17143016		4.16740911		5.07989714		-0.00070567		-0.00038287		-0.00010848
O		0.42690622		1.57250896		2.25040187		 0.00070567		-0.00038287		 0.00010848
O		2.06803523		3.43045821		5.87889995		-0.00038823		 0.00054916		-0.00002749
O		2.53030115		0.83555806		1.45139905		 0.00038823		 0.00054916		 0.00002749
O		4.36139205		4.35424225		2.34569620		-0.00035713		-0.00083783		-0.00022180
O		0.23694387		1.75934209		4.98460281		 0.00035713		-0.00083783		 0.00022180
O		1.79867820		3.65880916		1.31945423		-0.00014079		 0.00002665		 0.00038592
O		2.79965818		1.06390900		6.01084524		 0.00014079		 0.00002665		-0.00038592
H		2.10132918		4.16740911		3.58451602		-0.00050930		-0.00003046		 0.00054285
H		2.49700719		1.57250896		3.74578299		 0.00050930		-0.00003046		-0.00054285
H		4.42812123		3.62767022		7.22034383		-0.00036883		 0.00069073		 0.00035704
H		0.17021423		1.03277007		0.10995379		 0.00036883		 0.00069073		-0.00035704
H		1.40547411		2.83363090		5.67365092		 0.00013089		 0.00009315		-0.00001540
H		3.19286181		0.23873120		1.65664809		-0.00013089		 0.00009315		 0.00001540
H		3.56386180		4.93549895		5.35844901		-0.00012316		 0.00051997		 0.00010319
H		1.03447411		2.34060017		1.97185000		 0.00012316		 0.00051997		-0.00010319
H		4.30113713		4.42170909		3.26198300		-0.00005700		 0.00015997		-0.00002587
H		0.29719879		1.82680986		4.06831601		 0.00005700		 0.00015997		 0.00002587
H		1.89575388		3.59653083		0.38850612		 0.00039276		 0.00005681		 0.00024209
H		2.70258112		1.00163114		6.94179288		-0.00039276		 0.00005681		-0.00024209
