# total energy = -9075.36048612 eV

CRYSTAL
PRIMVEC
		5.49658263		0.00000000		0.00000000
		0.00000000		5.18980186		0.00000000
		-0.00412793		0.00000000		7.33029756
PRIMECORD
   28 1
Mg		4.17087066		2.66755696		1.83990463		 0.00010619		 0.00008208		 0.00011897
Mg		1.32158568		0.07265713		5.49039347		-0.00010619		 0.00008208		-0.00011897
Si		1.37311395		0.06746725		1.83257494		-0.00031687		-0.00039328		 0.00020957
Si		4.11934294		2.66236708		5.49772372		 0.00031687		-0.00039328		-0.00020957
O		1.99327083		5.07043368		3.53320386		 0.00018757		 0.00008357		-0.00034285
O		3.49918551		2.47553384		3.79709479		-0.00018757		 0.00008357		 0.00034285
O		4.73951577		2.85438965		7.16903167		-0.00002473		-0.00015285		-0.00064166
O		0.75294113		0.25948982		0.16126699		 0.00002473		-0.00015285		 0.00064166
O		4.98254057		4.16740891		5.07989659		-0.00019880		 0.00022028		 0.00002935
O		0.50991577		1.57250908		2.25040206		 0.00019880		 0.00022028		-0.00002935
O		2.47015269		3.43045789		5.87889963		 0.00029635		-0.00012023		 0.00032425
O		3.02230365		0.83555806		1.45139903		-0.00029635		-0.00012023		-0.00032425
O		5.20943950		4.35424160		2.34569577		 0.00044890		 0.00002991		-0.00038018
O		0.28301684		1.75934177		4.98460289		-0.00044890		 0.00002991		 0.00038018
O		2.14842067		3.65880902		1.31945411		 0.00013197		-0.00033899		-0.00014119
O		3.34403457		1.06390919		6.01084455		-0.00013197		-0.00033899		 0.00014119
H		2.50992101		4.16740891		3.58451556		 0.00011300		-0.00020879		-0.00003178
H		2.98253588		1.57250908		3.74578255		-0.00011300		-0.00020879		 0.00003178
H		5.28914490		3.62766978		7.22034337		 0.00051742		 0.00021473		-0.00003833
H		0.20331200		1.03276995		0.10995419		-0.00051742		 0.00021473		 0.00003833
H		1.67876077		2.83363071		5.67365064		-0.00025259		-0.00013802		 0.00024250
H		3.81369557		0.23873087		1.65664802		 0.00025259		-0.00013802		-0.00024250
H		4.25683446		4.93549862		5.35844856		 0.00005001		 0.00014905		 0.00017085
H		1.23562078		2.34059989		1.97185010		-0.00005001		 0.00014905		-0.00017085
H		5.13746890		4.42170885		3.26198269		-0.00023323		 0.00000118		-0.00009840
H		0.35498799		1.82681012		4.06831597		 0.00023323		 0.00000118		 0.00009840
H		2.26437273		3.59653054		0.38850616		 0.00013644		 0.00057134		 0.00009092
H		3.22808251		1.00163071		6.94179250		-0.00013644		 0.00057134		-0.00009092
