# total energy = -9075.07538349 eV

CRYSTAL
PRIMVEC
		5.62441014		0.00000000		0.00000000
		0.00000000		5.18980072		0.00000000
		-0.00422393		0.00000000		7.33029936
PRIMECORD
   28 1
Mg		4.26786822		2.66755705		1.83990485		 0.00019064		-0.00026358		-0.00038870
Mg		1.35232080		0.07265726		5.49039395		-0.00019064		-0.00026358		 0.00038870
Si		1.40504683		0.06746705		1.83257512		-0.00013128		 0.00002416		 0.00012178
Si		4.21514106		2.66236685		5.49772424		 0.00013128		 0.00002416		-0.00012178
O		2.03962597		5.07043387		3.53320383		 0.00038015		-0.00021994		-0.00009138
O		3.58056193		2.47553407		3.79709497		-0.00038015		-0.00021994		 0.00009138
O		4.84973707		2.85438983		7.16903234		 0.00046154		 0.00030315		-0.00011933
O		0.77045082		0.25949004		0.16126702		-0.00046154		 0.00030315		 0.00011933
O		5.09841418		4.16740894		5.07989694		-0.00005446		-0.00024988		-0.00004748
O		0.52177428		1.57250915		2.25040186		 0.00005446		-0.00024988		 0.00004748
O		2.52759923		3.43045823		5.87890008		 0.00007041		-0.00008691		 0.00007230
O		3.09259035		0.83555787		1.45139929		-0.00007041		-0.00008691		-0.00007230
O		5.33059039		4.35424229		2.34569625		 0.00055663		 0.00004297		-0.00025749
O		0.28959807		1.75934193		4.98460312		-0.00055663		 0.00004297		 0.00025749
O		2.19838395		3.65880928		1.31945400		 0.00006519		-0.00036404		 0.00027473
O		3.42180395		1.06390892		6.01084536		-0.00006519		-0.00036404		-0.00027473
H		2.56829128		4.16740894		3.58451589		-0.00000327		 0.00004954		-0.00032417
H		3.05189718		1.57250915		3.74578291		 0.00000327		 0.00004954		 0.00032417
H		5.41214828		3.62767030		7.22034439		 0.00031814		-0.00032928		-0.00025633
H		0.20804018		1.03276994		0.10995384		-0.00031814		-0.00032928		 0.00025633
H		1.71780228		2.83363126		5.67365129		 0.00012602		 0.00037115		 0.00048940
H		3.90238618		0.23873090		1.65664807		-0.00012602		 0.00037115		-0.00048940
H		4.35583231		4.93549920		5.35844922		 0.00002090		 0.00013158		 0.00028390
H		1.26435728		2.34059997		1.97185014		-0.00002090		 0.00013158		-0.00028390
H		5.25694493		4.42170934		3.26198296		-0.00016074		-0.00015879		-0.00000098
H		0.36324409		1.82681010		4.06831584		 0.00016074		-0.00015879		 0.00000098
H		2.31703313		3.59653132		0.38850613		-0.00001500		 0.00074984		-0.00030618
H		3.30315533		1.00163095		6.94179323		 0.00001500		 0.00074984		 0.00030618
