# total energy = -9075.07046176 eV

CRYSTAL
PRIMVEC
		4.72961806		0.00000000		0.00000000
		0.00000000		5.18980044		0.00000000
		-0.00355194		0.00000000		7.33029788
PRIMECORD
   28 1
Mg		3.58888905		2.66755709		1.83990514		 0.00009178		-0.00054072		-0.00065958
Mg		1.13717896		0.07265687		5.49039416		-0.00009178		-0.00054072		 0.00065958
Si		1.18151724		0.06746706		1.83257518		 0.00024979		 0.00004358		-0.00016707
Si		3.54455125		2.66236680		5.49772412		-0.00024979		 0.00004358		 0.00016707
O		1.71514018		5.07043387		3.53320395		 0.00010473		 0.00008285		-0.00052406
O		3.01092689		2.47553412		3.79709488		-0.00010473		 0.00008285		 0.00052406
O		4.07818790		2.85439024		7.16903209		-0.00015053		-0.00023796		 0.00043923
O		0.64788011		0.25949002		0.16126721		 0.00015053		-0.00023796		-0.00043923
O		4.28730324		4.16740884		5.07989689		-0.00066595		-0.00042772		-0.00008403
O		0.43876478		1.57250909		2.25040194		 0.00066595		-0.00042772		 0.00008403
O		2.12548090		3.43045820		5.87890012		-0.00045537		 0.00060289		-0.00003529
O		2.60058711		0.83555798		1.45139918		 0.00045537		 0.00060289		 0.00003529
O		4.48254092		4.35424199		2.34569617		-0.00022556		-0.00067396		-0.00031747
O		0.24352614		1.75934225		4.98460313		 0.00022556		-0.00067396		 0.00031747
O		1.84864122		3.65880889		1.31945419		-0.00006946		-0.00052772		 0.00044067
O		2.87742585		1.06390914		6.01084511		 0.00006946		-0.00052772		-0.00044067
H		2.15969921		4.16740884		3.58451605		-0.00043981		-0.00003560		 0.00050532
H		2.56636785		1.57250909		3.74578325		 0.00043981		-0.00003560		-0.00050532
H		4.55112512		3.62767003		7.22034419		-0.00031225		 0.00068826		 0.00023760
H		0.17494290		1.03276981		0.10995416		 0.00031225		 0.00068826		-0.00023760
H		1.44451522		2.83363100		5.67365125		 0.00008302		 0.00005595		-0.00005955
H		3.28155185		0.23873078		1.65664805		-0.00008302		 0.00005595		 0.00005955
H		3.66285791		4.93549928		5.35844916		-0.00015243		 0.00057065		 0.00007976
H		1.06320915		2.34060001		1.97185013		 0.00015243		 0.00057065		-0.00007976
H		4.42061320		4.42170905		3.26198305		-0.00002521		 0.00023078		-0.00006272
H		0.30545482		1.82681025		4.06831625		 0.00002521		 0.00023078		 0.00006272
H		1.94841393		3.59653117		0.38850596		 0.00038876		 0.00016874		 0.00022005
H		2.77765314		1.00163095		6.94179286		-0.00038876		 0.00016874		-0.00022005
