# total energy = -10312.5619533 eV	

CRYSTAL	
PRIMVEC	
		3.15900003		0.00000000		0.00000000	
		0.00000000		3.50999968		0.00000000	
		0.00000000		0.00000000		10.45000052	
PRIMCOORD
   14 1	
Si		0.00000000		0.00000000		0.00000000		0.00000000		0.00000000		0.00000000	
Si		1.57950001		1.75500015		5.22499994		0.00000000		0.00000000		0.00000000	
Mg		0.00000000		0.00000000		3.90829998		0.00000000		0.00000000		-0.00005696	
Mg		0.00000000		0.00000000		6.54169990		0.00000000		0.00000000		 0.00005696	
Mg		1.57950001		1.75500015		9.13329993		0.00000000		0.00000000		-0.00022292	
Mg		1.57950001		1.75500015		1.31669996		0.00000000		0.00000000		 0.00022292	
O		0.00000000		1.75500015		0.00000000		0.00000000		0.00000000		0.00000000	
O		1.57950001		0.00000000		0.00000000		0.00000000		0.00000000		0.00000000	
O		1.57950001		0.00000000		5.22499994		0.00000000		0.00000000		0.00000000	
O		0.00000000		1.75500015		5.22499994		0.00000000		0.00000000		0.00000000	
O		0.00000000		0.00000000		1.72111514		0.00000000		0.00000000		-0.00003615	
O		0.00000000		0.00000000		8.72888506		0.00000000		0.00000000		 0.00003615	
O		1.57950001		1.75500015		6.94611508		0.00000000		0.00000000		-0.00018941	
O		1.57950001		1.75500015		3.50388512		0.00000000		0.00000000		 0.00018941	
