# total energy = -18389.84971 eV

CRYSTAL
PRIMVEC
		11.10979641		0.88878148		0.00000000
		0.51115663		6.38939653		0.00000000
		0.00000000		0.00000000		4.82809685
PRIMECORD
   28 1
Mg		0.00000000		0.00000000		0.00000000		0.00000000		-0.00000000		0.00000000
Mg		5.55489932		0.44439186		2.41404954		-0.00000000		0.00000000		0.00000000
Mg		0.25557608		3.19469938		0.00000000		0.00000000		0.00000000		0.00000000
Mg		5.81047540		3.63909235		2.41404954		0.00000000		-0.00000000		0.00000000
Ca		3.20342503		1.84340045		4.71922628		 0.00003149		-0.00034217		-0.00076745
Ca		8.41752801		5.43478314		0.10887392		-0.00003149		 0.00034217		 0.00076745
Ca		2.86262646		4.99039128		2.30517674		-0.00003149		 0.00034217		-0.00076745
Ca		8.75832435		2.28779342		2.52292346		 0.00003149		-0.00034217		 0.00076745
Si		1.03390324		1.66983924		1.98425245		-0.00031713		 0.00014843		 0.00023489
Si		10.58704868		5.60834435		2.84384775		 0.00031713		-0.00014843		-0.00023489
Si		5.03214824		5.16395249		4.39830310		 0.00031713		-0.00014843		 0.00023489
Si		6.58880368		2.11423110		0.42979821		-0.00031713		 0.00014843		-0.00023489
O		0.99068625		1.66638197		3.60031342		 0.00052233		 0.00003813		 0.00025337
O		10.63026567		5.61180162		1.22778567		-0.00052233		-0.00003813		-0.00025337
O		5.07536524		5.16740976		1.18626387		-0.00052233		-0.00003813		 0.00025337
O		6.54558557		2.11077383		3.64183632		 0.00052233		 0.00003813		-0.00025337
O		5.11619937		1.99642311		1.18771276		 0.00018556		 0.00023683		 0.00014272
O		6.50475256		5.28176048		3.64038744		-0.00018556		-0.00023683		-0.00014272
O		0.94985324		4.83736862		3.60176230		-0.00018556		-0.00023683		 0.00014272
O		10.67109980		2.44081497		1.22633678		 0.00018556		 0.00023683		-0.00014272
O		1.66238861		0.42311772		1.31952035		 0.00032249		-0.00031827		 0.00028918
O		9.95856331		6.85506587		3.50857984		-0.00032249		 0.00031827		-0.00028918
O		4.40366288		6.41067402		3.73356990		-0.00032249		 0.00031827		 0.00028918
O		7.21728905		0.86750958		1.09453030		 0.00032249		-0.00031827		-0.00028918
O		9.74970607		4.24435650		3.50857984		 0.00059881		 0.00026476		 0.00001135
O		1.87124474		3.03382709		1.31952035		-0.00059881		-0.00026476		-0.00001135
O		7.42614517		3.47821895		1.09453030		-0.00059881		-0.00026476		 0.00001135
O		4.19480675		3.79996464		3.73356990		 0.00059881		 0.00026476		-0.00001135
