# total energy = -18388.4819492 eV

CRYSTAL
PRIMVEC
		11.10980144		-1.33317349		0.00000000
		-0.76672721		6.38939717		0.00000000
		0.00000000		0.00000000		4.82810326
PRIMECORD
   28 1
Mg		0.00000000		0.00000000		0.00000000		0.00000000		0.00000000		0.00000000
Mg		5.55489960		-0.66658786		2.41404939		0.00000000		0.00000000		0.00000000
Mg		-0.38336361		3.19469970		0.00000000		0.00000000		0.00000000		0.00000000
Mg		5.17153600		2.52811184		2.41404939		-0.00000000		-0.00000000		0.00000000
Ca		2.88395486		1.22827412		4.71922714		-0.00049613		-0.00013923		 0.00035398
Ca		7.45911825		3.82794956		0.10887388		 0.00049613		 0.00013923		-0.00035398
Ca		1.90421641		4.49453742		2.30517663		 0.00049613		 0.00013923		 0.00035398
Ca		8.43885446		0.56168626		2.52292439		-0.00049613		-0.00013923		-0.00035398
Si		0.71443306		1.48861584		1.98425270		 0.00019711		 0.00022640		-0.00048910
Si		9.62863893		3.56760784		2.84384832		-0.00019711		-0.00022640		 0.00048910
Si		4.07373933		4.23419570		4.39830321		-0.00019711		-0.00022640		-0.00048910
Si		6.26933379		0.82202798		0.42979781		 0.00019711		 0.00022640		 0.00048910
O		0.67121584		1.49380218		3.60031364		-0.00009409		 0.00000117		-0.00039245
O		9.67185615		3.56242150		1.22778626		 0.00009409		-0.00000117		 0.00039245
O		4.11695543		4.22900936		1.18626425		 0.00009409		-0.00000117		-0.00039245
O		6.22611544		0.82721432		3.64183565		-0.00009409		 0.00000117		 0.00039245
O		4.79673012		0.99874046		1.18771329		-0.00067247		 0.00016296		-0.00082520
O		5.54634299		4.05748321		3.64038773		 0.00067247		-0.00016296		 0.00082520
O		-0.00855661		4.72407108		3.60176268		 0.00067247		-0.00016296		-0.00082520
O		10.35162973		0.33215260		1.22633722		-0.00067247		 0.00016296		 0.00082520
O		1.60398858		0.09531220		1.31952005		 0.00009872		-0.00056095		 0.00028768
O		8.73908229		4.96091148		3.50857984		-0.00009872		 0.00056095		-0.00028768
O		3.18418269		5.62749934		3.73356944		-0.00009872		 0.00056095		 0.00028768
O		7.15888931		-0.57127567		1.09453045		 0.00009872		-0.00056095		-0.00028768
O		9.05236715		2.35020320		3.50857984		 0.00079626		 0.00014486		 0.00027826
O		1.29070372		2.70602048		1.31952005		-0.00079626		-0.00014486		-0.00027826
O		6.84560445		2.03943262		1.09453045		-0.00079626		-0.00014486		 0.00027826
O		3.49746755		3.01679106		3.73356944		 0.00079626		 0.00014486		-0.00027826
