# total energy = -18387.1459084 eV

CRYSTAL
PRIMVEC
		11.10980369		1.77757354		0.00000000
		1.02230927		6.38940202		0.00000000
		0.00000000		0.00000000		4.82809725
PRIMECORD
   28 1
Mg		0.00000000		0.00000000		0.00000000		-0.00000000		0.00000000		-0.00000000
Mg		5.55489959		0.88878452		2.41404975		0.00000000		-0.00000000		-0.00000000
Mg		0.51115239		3.19469989		0.00000000		0.00000000		0.00000000		0.00000000
Mg		6.06605198		4.08348328		2.41404975		0.00000000		-0.00000000		0.00000000
Ca		3.33121294		2.08945196		4.71922705		-0.00021941		-0.00013047		-0.00021345
Ca		8.80089215		6.07751573		0.10887358		 0.00021941		 0.00013047		 0.00021345
Ca		3.24599031		5.18873234		2.30517729		 0.00021941		 0.00013047		-0.00021345
Ca		8.88611253		2.97823535		2.52292446		-0.00021941		-0.00013047		 0.00021345
Si		1.16169135		1.74232832		1.98425299		-0.00017608		-0.00022675		 0.00070886
Si		10.97041260		6.42463936		2.84384764		 0.00017608		 0.00022675		-0.00070886
Si		5.41551301		5.53585597		4.39830274		 0.00017608		 0.00022675		 0.00070886
Si		6.71659207		2.63111284		0.42979789		-0.00017608		-0.00022675		-0.00070886
O		1.11847361		1.73541339		3.60031352		-0.00038795		 0.00002512		 0.00084999
O		11.01362923		6.43155429		1.22778598		 0.00038795		-0.00002512		-0.00084999
O		5.45872964		5.54276977		1.18626377		 0.00038795		-0.00002512		 0.00084999
O		6.67337320		2.62419791		3.64183573		-0.00038795		 0.00002512		-0.00084999
O		5.24398765		2.39549555		1.18771291		 0.00059439		-0.00018709		 0.00032058
O		6.88811631		5.77147214		3.64038771		-0.00059439		 0.00018709		-0.00032058
O		1.33321672		4.88268762		3.60176266		-0.00059439		 0.00018709		 0.00032058
O		10.79888724		3.28428007		1.22633684		 0.00059439		-0.00018709		-0.00032058
O		1.68574764		0.55423962		1.31951962		 0.00008220		-0.00001341		-0.00030395
O		10.44635520		7.61272807		3.50857988		-0.00008220		 0.00001341		 0.00030395
O		4.89145561		6.72394355		3.73356937		-0.00008220		 0.00001341		-0.00030395
O		7.24064835		1.44302414		1.09453013		 0.00008220		-0.00001341		 0.00030395
O		10.02864212		5.00201910		3.50857988		 0.00026770		 0.00019118		-0.00024606
O		2.10346183		3.16494859		1.31951962		-0.00026770		-0.00019118		 0.00024606
O		7.65836143		4.05373311		1.09453013		-0.00026770		-0.00019118		-0.00024606
O		4.47374141		4.11323458		3.73356937		 0.00026770		 0.00019118		 0.00024606
