
     Program PWSCF v.6.6 starts on  4Feb2024 at 13:34:18 

     This program is part of the open-source Quantum ESPRESSO suite
     for quantum simulation of materials; please cite
         "P. Giannozzi et al., J. Phys.:Condens. Matter 21 395502 (2009);
         "P. Giannozzi et al., J. Phys.:Condens. Matter 29 465901 (2017);
          URL http://www.quantum-espresso.org", 
     in publications or presentations arising from this work. More details at
     http://www.quantum-espresso.org/quote

     Parallel version (MPI & OpenMP), running on      16 processor cores
     Number of MPI processes:                16
     Threads/MPI process:                     1

     MPI processes distributed on     2 nodes
     R & G space division:  proc/nbgrp/npool/nimage =      16
     Fft bands division:     nmany     =       1
     Waiting for input...
     Reading input from standard input

     Current dimensions of program PWSCF are:
     Max number of different atomic species (ntypx) = 10
     Max number of k-points (npk) =  40000
     Max angular momentum in pseudopotentials (lmaxx) =  3

     IMPORTANT: XC functional enforced from input :
     Exchange-correlation= PBE
                           (   1   4   3   4   0   0   0)
     Any further DFT definition will be discarded
     Please, verify this is what you really want


     --------------------------------------------
     Parameters for DFT-D3 Dispersion Correction:
     --------------------------------------------
       Reference C6 values for interpolation: 

         atom   Coordination number   C6
         O          0.000            31.01
         O          0.993            25.63
         O          1.989            20.74
         Mg         0.000          1366.75
         Mg         0.963           902.54
         Mg         1.950           351.12

       Values used:

         atom   Coordination number  R0_AB[au]  C6      C8
         Mg        16.582            3.292    351.12  31436.69
         Mg        16.582            3.292    351.12  31436.69
         Mg        16.582            3.292    351.12  31436.69
         Mg        16.582            3.292    351.12  31436.69
         O          5.817            2.345     20.74    418.58
         O          5.817            2.345     20.74    418.58
         O          5.817            2.345     20.74    418.58
         O          5.817            2.345     20.74    418.58

         Molecular C6 ( Ry / a.u.^6 ) =      8251.69


     Subspace diagonalization in iterative solution of the eigenvalue problem:
     a serial algorithm will be used

     Found symmetry operation: I + (  0.0000 -0.5000 -0.5000)
     This is a supercell, fractional translations are disabled
 
     Parallelization info
     --------------------
     sticks:   dense  smooth     PW     G-vecs:    dense   smooth      PW
     Min         126     126     35                 4252     4252     619
     Max         127     127     36                 4255     4255     623
     Sum        2025    2025    561                68051    68051    9939
 


     bravais-lattice index     =            0
     lattice parameter (alat)  =       7.9576  a.u.
     unit-cell volume          =     503.9092 (a.u.)^3
     number of atoms/cell      =            8
     number of atomic types    =            2
     number of electrons       =        64.00
     number of Kohn-Sham states=           38
     kinetic-energy cutoff     =     100.0000  Ry
     charge density cutoff     =     400.0000  Ry
     convergence threshold     =      1.0E-06
     mixing beta               =       0.5000
     number of iterations used =            8  plain     mixing
     Exchange-correlation= PBE
                           (   1   4   3   4   0   0   0)
     nstep                     =          100


     celldm(1)=   7.957637  celldm(2)=   0.000000  celldm(3)=   0.000000
     celldm(4)=   0.000000  celldm(5)=   0.000000  celldm(6)=   0.000000

     crystal axes: (cart. coord. in units of alat)
               a(1) = (   1.000000   0.000000   0.000000 )  
               a(2) = (   0.000000   1.000000   0.000000 )  
               a(3) = (   0.000000   0.000000   1.000000 )  

     reciprocal axes: (cart. coord. in units 2 pi/alat)
               b(1) = (  1.000000  0.000000  0.000000 )  
               b(2) = (  0.000000  1.000000  0.000000 )  
               b(3) = (  0.000000  0.000000  1.000000 )  


     PseudoPot. # 1 for Mg read from file:
     ./Mg.upf
     MD5 check sum: 4c04d8c6e0476e83eaecaf72fa8acc4d
     Pseudo is Norm-conserving, Zval = 10.0
     Generated using ONCVPSP code by D. R. Hamann
     Using radial grid of 1510 points,  4 beta functions with: 
                l(1) =   0
                l(2) =   0
                l(3) =   1
                l(4) =   1

     PseudoPot. # 2 for O  read from file:
     ./O.upf
     MD5 check sum: 3e3f909f7470e8921608ab6b1f57bbae
     Pseudo is Norm-conserving + core correction, Zval =  6.0
     Generated using ONCVPSP code by D. R. Hamann
     Using radial grid of  936 points,  5 beta functions with: 
                l(1) =   0
                l(2) =   0
                l(3) =   1
                l(4) =   1
                l(5) =   2

     atomic species   valence    mass     pseudopotential
        Mg            10.00    24.30500     Mg( 1.00)
        O              6.00    15.99900     O ( 1.00)

     No symmetry found



   Cartesian axes

     site n.     atom                  positions (alat units)
         1           Mg  tau(   1) = (   0.0000000   0.0000000   0.0000000  )
         2           Mg  tau(   2) = (   0.0000000   0.5000000   0.5000000  )
         3           Mg  tau(   3) = (   0.5000000   0.0000000   0.5000000  )
         4           Mg  tau(   4) = (   0.5000000   0.5000000   0.0000000  )
         5           O   tau(   5) = (   0.5000000   0.5000000   0.5000000  )
         6           O   tau(   6) = (   0.5000000   0.0000000   0.0000000  )
         7           O   tau(   7) = (   0.0000000   0.5000000   0.0000000  )
         8           O   tau(   8) = (   0.0000000   0.0000000   0.5000000  )

     number of k points=    63  Gaussian smearing, width (Ry)=  0.0050
                       cart. coord. in units 2pi/alat
        k(    1) = (   0.0000000   0.0000000   0.0000000), wk =   0.0160000
        k(    2) = (   0.0000000   0.0000000   0.2000000), wk =   0.0320000
        k(    3) = (   0.0000000   0.0000000   0.4000000), wk =   0.0320000
        k(    4) = (   0.0000000   0.2000000   0.0000000), wk =   0.0320000
        k(    5) = (   0.0000000   0.2000000   0.2000000), wk =   0.0320000
        k(    6) = (   0.0000000   0.2000000   0.4000000), wk =   0.0320000
        k(    7) = (   0.0000000   0.2000000  -0.4000000), wk =   0.0320000
        k(    8) = (   0.0000000   0.2000000  -0.2000000), wk =   0.0320000
        k(    9) = (   0.0000000   0.4000000   0.0000000), wk =   0.0320000
        k(   10) = (   0.0000000   0.4000000   0.2000000), wk =   0.0320000
        k(   11) = (   0.0000000   0.4000000   0.4000000), wk =   0.0320000
        k(   12) = (   0.0000000   0.4000000  -0.4000000), wk =   0.0320000
        k(   13) = (   0.0000000   0.4000000  -0.2000000), wk =   0.0320000
        k(   14) = (   0.2000000   0.0000000   0.0000000), wk =   0.0320000
        k(   15) = (   0.2000000   0.0000000   0.2000000), wk =   0.0320000
        k(   16) = (   0.2000000   0.0000000   0.4000000), wk =   0.0320000
        k(   17) = (   0.2000000   0.0000000  -0.4000000), wk =   0.0320000
        k(   18) = (   0.2000000   0.0000000  -0.2000000), wk =   0.0320000
        k(   19) = (   0.2000000   0.2000000   0.0000000), wk =   0.0320000
        k(   20) = (   0.2000000   0.2000000   0.2000000), wk =   0.0320000
        k(   21) = (   0.2000000   0.2000000   0.4000000), wk =   0.0320000
        k(   22) = (   0.2000000   0.2000000  -0.4000000), wk =   0.0320000
        k(   23) = (   0.2000000   0.2000000  -0.2000000), wk =   0.0320000
        k(   24) = (   0.2000000   0.4000000   0.0000000), wk =   0.0320000
        k(   25) = (   0.2000000   0.4000000   0.2000000), wk =   0.0320000
        k(   26) = (   0.2000000   0.4000000   0.4000000), wk =   0.0320000
        k(   27) = (   0.2000000   0.4000000  -0.4000000), wk =   0.0320000
        k(   28) = (   0.2000000   0.4000000  -0.2000000), wk =   0.0320000
        k(   29) = (   0.2000000  -0.4000000   0.0000000), wk =   0.0320000
        k(   30) = (   0.2000000  -0.4000000   0.2000000), wk =   0.0320000
        k(   31) = (   0.2000000  -0.4000000   0.4000000), wk =   0.0320000
        k(   32) = (   0.2000000  -0.4000000  -0.4000000), wk =   0.0320000
        k(   33) = (   0.2000000  -0.4000000  -0.2000000), wk =   0.0320000
        k(   34) = (   0.2000000  -0.2000000   0.0000000), wk =   0.0320000
        k(   35) = (   0.2000000  -0.2000000   0.2000000), wk =   0.0320000
        k(   36) = (   0.2000000  -0.2000000   0.4000000), wk =   0.0320000
        k(   37) = (   0.2000000  -0.2000000  -0.4000000), wk =   0.0320000
        k(   38) = (   0.2000000  -0.2000000  -0.2000000), wk =   0.0320000
        k(   39) = (   0.4000000   0.0000000   0.0000000), wk =   0.0320000
        k(   40) = (   0.4000000   0.0000000   0.2000000), wk =   0.0320000
        k(   41) = (   0.4000000   0.0000000   0.4000000), wk =   0.0320000
        k(   42) = (   0.4000000   0.0000000  -0.4000000), wk =   0.0320000
        k(   43) = (   0.4000000   0.0000000  -0.2000000), wk =   0.0320000
        k(   44) = (   0.4000000   0.2000000   0.0000000), wk =   0.0320000
        k(   45) = (   0.4000000   0.2000000   0.2000000), wk =   0.0320000
        k(   46) = (   0.4000000   0.2000000   0.4000000), wk =   0.0320000
        k(   47) = (   0.4000000   0.2000000  -0.4000000), wk =   0.0320000
        k(   48) = (   0.4000000   0.2000000  -0.2000000), wk =   0.0320000
        k(   49) = (   0.4000000   0.4000000   0.0000000), wk =   0.0320000
        k(   50) = (   0.4000000   0.4000000   0.2000000), wk =   0.0320000
        k(   51) = (   0.4000000   0.4000000   0.4000000), wk =   0.0320000
        k(   52) = (   0.4000000   0.4000000  -0.4000000), wk =   0.0320000
        k(   53) = (   0.4000000   0.4000000  -0.2000000), wk =   0.0320000
        k(   54) = (   0.4000000  -0.4000000   0.0000000), wk =   0.0320000
        k(   55) = (   0.4000000  -0.4000000   0.2000000), wk =   0.0320000
        k(   56) = (   0.4000000  -0.4000000   0.4000000), wk =   0.0320000
        k(   57) = (   0.4000000  -0.4000000  -0.4000000), wk =   0.0320000
        k(   58) = (   0.4000000  -0.4000000  -0.2000000), wk =   0.0320000
        k(   59) = (   0.4000000  -0.2000000   0.0000000), wk =   0.0320000
        k(   60) = (   0.4000000  -0.2000000   0.2000000), wk =   0.0320000
        k(   61) = (   0.4000000  -0.2000000   0.4000000), wk =   0.0320000
        k(   62) = (   0.4000000  -0.2000000  -0.4000000), wk =   0.0320000
        k(   63) = (   0.4000000  -0.2000000  -0.2000000), wk =   0.0320000

     Dense  grid:    68051 G-vectors     FFT dimensions: (  54,  54,  54)

     Estimated max dynamical RAM per process >      29.22 MB

     Estimated total dynamical RAM >     467.47 MB

     Initial potential from superposition of free atoms

     starting charge   63.99678, renormalised to   64.00000
     Starting wfcs are   36 randomized atomic wfcs +    2 random wfcs

     total cpu time spent up to now is        1.7 secs

     Self-consistent Calculation

     iteration #  1     ecut=   100.00 Ry     beta= 0.50
     Davidson diagonalization with overlap
     ethr =  1.00E-02,  avg # of iterations =  4.0

     total cpu time spent up to now is        9.5 secs

     total energy              =    -608.03223956 Ry
     estimated scf accuracy    <       1.57336964 Ry

     iteration #  2     ecut=   100.00 Ry     beta= 0.50
     Davidson diagonalization with overlap
     ethr =  2.46E-03,  avg # of iterations =  2.2

     total cpu time spent up to now is       13.4 secs

     total energy              =    -608.48016584 Ry
     estimated scf accuracy    <       0.24132896 Ry

     iteration #  3     ecut=   100.00 Ry     beta= 0.50
     Davidson diagonalization with overlap
     ethr =  3.77E-04,  avg # of iterations =  2.2

     total cpu time spent up to now is       17.2 secs

     total energy              =    -608.51529458 Ry
     estimated scf accuracy    <       0.01286812 Ry

     iteration #  4     ecut=   100.00 Ry     beta= 0.50
     Davidson diagonalization with overlap
     ethr =  2.01E-05,  avg # of iterations =  4.1

     total cpu time spent up to now is       21.6 secs

     total energy              =    -608.51591804 Ry
     estimated scf accuracy    <       0.00171225 Ry

     iteration #  5     ecut=   100.00 Ry     beta= 0.50
     Davidson diagonalization with overlap
     ethr =  2.68E-06,  avg # of iterations =  3.9

     total cpu time spent up to now is       25.9 secs

     total energy              =    -608.51631878 Ry
     estimated scf accuracy    <       0.00005206 Ry

     iteration #  6     ecut=   100.00 Ry     beta= 0.50
     Davidson diagonalization with overlap
     ethr =  8.13E-08,  avg # of iterations =  2.1

     total cpu time spent up to now is       29.7 secs

     total energy              =    -608.51633117 Ry
     estimated scf accuracy    <       0.00000150 Ry

     iteration #  7     ecut=   100.00 Ry     beta= 0.50
     Davidson diagonalization with overlap
     ethr =  2.35E-09,  avg # of iterations =  2.9

     total cpu time spent up to now is       33.7 secs

     total energy              =    -608.51633010 Ry
     estimated scf accuracy    <       0.00000321 Ry

     iteration #  8     ecut=   100.00 Ry     beta= 0.50
     Davidson diagonalization with overlap
     ethr =  2.35E-09,  avg # of iterations =  2.5

     total cpu time spent up to now is       37.7 secs

     End of self-consistent calculation

          k = 0.0000 0.0000 0.0000 (  8409 PWs)   bands (ev):

   -64.2904 -64.2789 -64.2789 -64.2789 -31.1156 -31.1156 -31.1156 -31.0716
   -31.0716 -31.0716 -31.0716 -31.0716 -31.0716 -31.0431 -31.0431 -31.0431
    -9.1286  -7.5854  -7.5854  -7.5853   4.0215   4.0215   4.0215   6.7284
     6.7284   6.7284   6.7284   6.7284   6.7285   8.0632   8.0632   8.0632
    12.8379  17.2907  17.2907  18.0836  18.0836  18.0836

          k = 0.0000 0.0000 0.2000 (  8501 PWs)   bands (ev):

   -64.2893 -64.2800 -64.2789 -64.2789 -31.1114 -31.1114 -31.1095 -31.0758
   -31.0758 -31.0723 -31.0723 -31.0689 -31.0689 -31.0508 -31.0458 -31.0458
    -8.9846  -7.7348  -7.5636  -7.5636   4.2128   4.2128   4.2479   6.3644
     6.3644   6.5784   6.5784   6.8368   6.8368   7.3531   7.9122   7.9122
    13.6615  17.6208  17.8675  17.8675  17.9372  18.6672

          k = 0.0000 0.0000 0.4000 (  8542 PWs)   bands (ev):

   -64.2864 -64.2829 -64.2789 -64.2789 -31.1003 -31.1003 -31.0927 -31.0868
   -31.0868 -31.0735 -31.0735 -31.0703 -31.0617 -31.0617 -31.0529 -31.0529
    -8.6035  -8.1253  -7.5280  -7.5280   4.7601   4.7601   4.9403   5.5608
     5.5608   6.0583   6.3469   6.3469   7.1366   7.1366   7.5447   7.5447
    15.3077  16.9480  18.6064  19.1278  19.1278  19.9457

          k = 0.0000 0.2000 0.0000 (  8501 PWs)   bands (ev):

   -64.2893 -64.2800 -64.2789 -64.2789 -31.1114 -31.1114 -31.1095 -31.0758
   -31.0758 -31.0723 -31.0723 -31.0689 -31.0689 -31.0508 -31.0458 -31.0458
    -8.9846  -7.7348  -7.5636  -7.5635   4.2128   4.2128   4.2479   6.3644
     6.3644   6.5783   6.5784   6.8368   6.8368   7.3531   7.9122   7.9122
    13.6615  17.6208  17.8675  17.8675  17.9372  18.6672

          k = 0.0000 0.2000 0.2000 (  8512 PWs)   bands (ev):

   -64.2883 -64.2799 -64.2799 -64.2790 -31.1080 -31.1080 -31.1073 -31.0847
   -31.0729 -31.0729 -31.0682 -31.0682 -31.0670 -31.0618 -31.0486 -31.0439
    -8.8483  -7.6962  -7.6962  -7.5568   4.3404   4.3404   4.4003   5.7445
     6.4888   6.4888   6.7057   6.7559   6.7559   6.8624   7.7349   7.9490
    14.2550  18.0103  18.1463  18.3983  18.3983  19.3507

          k = 0.0000 0.2000 0.4000 (  8538 PWs)   bands (ev):

   -64.2857 -64.2825 -64.2796 -64.2793 -31.1033 -31.0972 -31.0966 -31.0953
   -31.0835 -31.0800 -31.0663 -31.0654 -31.0651 -31.0584 -31.0561 -31.0487
    -8.4905  -8.0489  -7.6163  -7.5624   4.6046   4.8051   4.9353   5.0638
     5.6579   5.7140   6.6971   6.8173   6.8340   7.1835   7.3062   7.6583
    15.6414  17.2265  18.7471  18.9614  19.1571  19.2684

          k = 0.0000 0.2000-0.4000 (  8538 PWs)   bands (ev):

   -64.2857 -64.2825 -64.2796 -64.2793 -31.1033 -31.0972 -31.0966 -31.0953
   -31.0835 -31.0800 -31.0663 -31.0654 -31.0651 -31.0584 -31.0561 -31.0487
    -8.4905  -8.0489  -7.6163  -7.5624   4.6046   4.8051   4.9353   5.0638
     5.6579   5.7140   6.6971   6.8173   6.8340   7.1835   7.3062   7.6583
    15.6414  17.2265  18.7471  18.9615  19.1571  19.2684

          k = 0.0000 0.2000-0.2000 (  8512 PWs)   bands (ev):

   -64.2883 -64.2799 -64.2799 -64.2790 -31.1080 -31.1080 -31.1073 -31.0847
   -31.0729 -31.0729 -31.0682 -31.0682 -31.0670 -31.0618 -31.0486 -31.0439
    -8.8483  -7.6962  -7.6962  -7.5568   4.3404   4.3404   4.4003   5.7445
     6.4888   6.4888   6.7057   6.7559   6.7559   6.8624   7.7349   7.9490
    14.2550  18.0103  18.1463  18.3983  18.3983  19.3508

          k = 0.0000 0.4000 0.0000 (  8542 PWs)   bands (ev):

   -64.2864 -64.2829 -64.2789 -64.2789 -31.1003 -31.1003 -31.0927 -31.0868
   -31.0868 -31.0735 -31.0735 -31.0703 -31.0617 -31.0617 -31.0529 -31.0529
    -8.6035  -8.1253  -7.5281  -7.5280   4.7601   4.7601   4.9403   5.5608
     5.5608   6.0583   6.3468   6.3469   7.1366   7.1366   7.5447   7.5447
    15.3077  16.9480  18.6064  19.1278  19.1278  19.9457

          k = 0.0000 0.4000 0.2000 (  8538 PWs)   bands (ev):

   -64.2857 -64.2825 -64.2796 -64.2793 -31.1033 -31.0972 -31.0966 -31.0953
   -31.0835 -31.0800 -31.0663 -31.0654 -31.0651 -31.0584 -31.0561 -31.0487
    -8.4905  -8.0489  -7.6163  -7.5624   4.6046   4.8051   4.9353   5.0638
     5.6579   5.7140   6.6971   6.8173   6.8340   7.1835   7.3062   7.6583
    15.6414  17.2265  18.7471  19.1571  19.2684  20.2428

          k = 0.0000 0.4000 0.4000 (  8510 PWs)   bands (ev):

   -64.2838 -64.2815 -64.2815 -64.2803 -31.1033 -31.1033 -31.1031 -31.0945
   -31.0869 -31.0750 -31.0750 -31.0645 -31.0568 -31.0549 -31.0549 -31.0480
    -8.2019  -7.8654  -7.8654  -7.6776   4.5832   4.5832   4.6169   4.9879
     5.4318   6.1434   6.1434   6.7441   7.2117   7.2690   7.2690   7.6309
    16.5379  17.7945  17.7945  18.2789  19.6317  20.0774

          k = 0.0000 0.4000-0.4000 (  8510 PWs)   bands (ev):

   -64.2838 -64.2815 -64.2815 -64.2803 -31.1033 -31.1033 -31.1031 -31.0945
   -31.0869 -31.0750 -31.0750 -31.0645 -31.0568 -31.0549 -31.0549 -31.0480
    -8.2019  -7.8654  -7.8654  -7.6776   4.5832   4.5832   4.6169   4.9879
     5.4318   6.1434   6.1434   6.7441   7.2117   7.2690   7.2690   7.6309
    16.5379  17.7945  17.7945  18.2789  19.6317  20.0773

          k = 0.0000 0.4000-0.2000 (  8538 PWs)   bands (ev):

   -64.2857 -64.2825 -64.2796 -64.2793 -31.1033 -31.0972 -31.0966 -31.0953
   -31.0835 -31.0800 -31.0663 -31.0654 -31.0651 -31.0584 -31.0561 -31.0487
    -8.4905  -8.0489  -7.6163  -7.5624   4.6046   4.8051   4.9353   5.0638
     5.6579   5.7140   6.6971   6.8173   6.8340   7.1835   7.3062   7.6583
    15.6414  17.2265  18.7471  18.9615  19.1571  19.2684

          k = 0.2000 0.0000 0.0000 (  8501 PWs)   bands (ev):

   -64.2893 -64.2800 -64.2789 -64.2789 -31.1114 -31.1114 -31.1095 -31.0758
   -31.0758 -31.0723 -31.0723 -31.0689 -31.0689 -31.0508 -31.0458 -31.0458
    -8.9846  -7.7348  -7.5636  -7.5636   4.2128   4.2128   4.2479   6.3644
     6.3644   6.5784   6.5784   6.8368   6.8368   7.3531   7.9122   7.9122
    13.6615  17.6208  17.8675  17.8675  17.9372  18.6672

          k = 0.2000 0.0000 0.2000 (  8512 PWs)   bands (ev):

   -64.2883 -64.2799 -64.2799 -64.2790 -31.1080 -31.1080 -31.1073 -31.0847
   -31.0729 -31.0729 -31.0682 -31.0682 -31.0670 -31.0618 -31.0486 -31.0439
    -8.8483  -7.6962  -7.6961  -7.5568   4.3404   4.3404   4.4003   5.7445
     6.4888   6.4889   6.7057   6.7559   6.7559   6.8624   7.7349   7.9490
    14.2550  18.0103  18.1462  18.1463  18.3983  18.3983

          k = 0.2000 0.0000 0.4000 (  8538 PWs)   bands (ev):

   -64.2857 -64.2825 -64.2796 -64.2793 -31.1033 -31.0972 -31.0966 -31.0953
   -31.0835 -31.0800 -31.0663 -31.0654 -31.0651 -31.0584 -31.0561 -31.0487
    -8.4905  -8.0489  -7.6163  -7.5624   4.6046   4.8051   4.9353   5.0638
     5.6579   5.7140   6.6971   6.8173   6.8340   7.1835   7.3062   7.6583
    15.6414  17.2265  18.7471  19.1571  19.2684  20.2432

          k = 0.2000 0.0000-0.4000 (  8538 PWs)   bands (ev):

   -64.2857 -64.2825 -64.2796 -64.2793 -31.1033 -31.0972 -31.0966 -31.0953
   -31.0835 -31.0800 -31.0663 -31.0654 -31.0651 -31.0584 -31.0561 -31.0487
    -8.4905  -8.0489  -7.6163  -7.5624   4.6046   4.8051   4.9353   5.0638
     5.6579   5.7140   6.6971   6.8173   6.8340   7.1835   7.3062   7.6583
    15.6414  17.2265  18.7471  18.9614  19.1571  19.2684

          k = 0.2000 0.0000-0.2000 (  8512 PWs)   bands (ev):

   -64.2883 -64.2799 -64.2799 -64.2790 -31.1080 -31.1080 -31.1073 -31.0847
   -31.0729 -31.0729 -31.0682 -31.0682 -31.0670 -31.0618 -31.0486 -31.0439
    -8.8483  -7.6962  -7.6961  -7.5568   4.3404   4.3404   4.4003   5.7445
     6.4888   6.4889   6.7057   6.7559   6.7559   6.8624   7.7349   7.9490
    14.2550  18.0103  18.1462  18.1463  18.3983  18.3983

          k = 0.2000 0.2000 0.0000 (  8512 PWs)   bands (ev):

   -64.2883 -64.2799 -64.2799 -64.2790 -31.1080 -31.1080 -31.1073 -31.0847
   -31.0729 -31.0729 -31.0682 -31.0682 -31.0670 -31.0618 -31.0486 -31.0439
    -8.8483  -7.6962  -7.6961  -7.5568   4.3404   4.3404   4.4003   5.7445
     6.4888   6.4889   6.7057   6.7559   6.7559   6.8624   7.7349   7.9490
    14.2550  18.0103  18.1463  18.1463  18.3983  18.3983

          k = 0.2000 0.2000 0.2000 (  8517 PWs)   bands (ev):

   -64.2874 -64.2799 -64.2799 -64.2799 -31.1085 -31.1085 -31.1085 -31.0765
   -31.0764 -31.0764 -31.0728 -31.0648 -31.0648 -31.0648 -31.0461 -31.0461
    -8.7203  -7.6719  -7.6719  -7.6718   4.3531   4.3531   4.3531   6.1068
     6.1091   6.1092   6.1092   6.9532   6.9533   6.9533   7.8301   7.8301
    14.6515  17.9659  17.9659  17.9659  19.2158  19.2158

          k = 0.2000 0.2000 0.4000 (  8510 PWs)   bands (ev):

   -64.2851 -64.2822 -64.2799 -64.2799 -31.1096 -31.1096 -31.1041 -31.0906
   -31.0789 -31.0789 -31.0623 -31.0623 -31.0616 -31.0590 -31.0518 -31.0499
    -8.3874  -7.9848  -7.6322  -7.6321   4.3411   4.3411   4.5446   5.1844
     5.8452   5.8453   6.8372   6.9496   6.9497   7.2024   7.5215   7.5360
    15.7320  17.1039  18.2408  18.2408  19.4441  20.0339

          k = 0.2000 0.2000-0.4000 (  8510 PWs)   bands (ev):

   -64.2851 -64.2822 -64.2799 -64.2799 -31.1096 -31.1096 -31.1041 -31.0906
   -31.0789 -31.0789 -31.0623 -31.0623 -31.0616 -31.0590 -31.0518 -31.0499
    -8.3874  -7.9848  -7.6322  -7.6321   4.3411   4.3411   4.5446   5.1844
     5.8452   5.8453   6.8372   6.9496   6.9497   7.2024   7.5215   7.5360
    15.7320  17.1039  18.2408  18.2408  19.4441  20.0339

          k = 0.2000 0.2000-0.2000 (  8517 PWs)   bands (ev):

   -64.2874 -64.2799 -64.2799 -64.2799 -31.1085 -31.1085 -31.1085 -31.0765
   -31.0764 -31.0764 -31.0728 -31.0648 -31.0648 -31.0648 -31.0461 -31.0461
    -8.7203  -7.6719  -7.6719  -7.6718   4.3531   4.3531   4.3531   6.1068
     6.1091   6.1092   6.1092   6.9532   6.9533   6.9533   7.8301   7.8301
    14.6515  17.9659  17.9659  17.9659  19.2158  19.2158

          k = 0.2000 0.4000 0.0000 (  8538 PWs)   bands (ev):

   -64.2857 -64.2825 -64.2796 -64.2793 -31.1033 -31.0972 -31.0966 -31.0953
   -31.0835 -31.0800 -31.0663 -31.0654 -31.0651 -31.0584 -31.0561 -31.0487
    -8.4905  -8.0489  -7.6163  -7.5624   4.6046   4.8051   4.9353   5.0638
     5.6579   5.7140   6.6971   6.8173   6.8340   7.1835   7.3062   7.6583
    15.6414  17.2265  18.7471  19.1571  19.2684  20.2428

          k = 0.2000 0.4000 0.2000 (  8510 PWs)   bands (ev):

   -64.2851 -64.2822 -64.2799 -64.2799 -31.1096 -31.1096 -31.1041 -31.0906
   -31.0789 -31.0789 -31.0623 -31.0623 -31.0616 -31.0590 -31.0518 -31.0499
    -8.3874  -7.9848  -7.6322  -7.6321   4.3411   4.3411   4.5446   5.1844
     5.8452   5.8453   6.8372   6.9496   6.9497   7.2024   7.5215   7.5360
    15.7320  17.1039  18.2408  18.2408  19.4441  20.0339

          k = 0.2000 0.4000 0.4000 (  8499 PWs)   bands (ev):

   -64.2835 -64.2815 -64.2815 -64.2806 -31.1157 -31.1135 -31.1135 -31.1059
   -31.0720 -31.0655 -31.0655 -31.0567 -31.0560 -31.0548 -31.0548 -31.0488
    -8.1287  -7.8373  -7.8373  -7.7009   4.0448   4.1381   4.1381   4.4786
     6.1921   6.6032   6.6032   7.1653   7.2498   7.2895   7.2895   7.5890
    16.2058  17.1556  17.1556  17.5297  20.1205  20.3550

          k = 0.2000 0.4000-0.4000 (  8499 PWs)   bands (ev):

   -64.2835 -64.2815 -64.2815 -64.2806 -31.1157 -31.1135 -31.1135 -31.1059
   -31.0720 -31.0655 -31.0655 -31.0567 -31.0560 -31.0548 -31.0548 -31.0488
    -8.1287  -7.8373  -7.8373  -7.7009   4.0448   4.1381   4.1381   4.4786
     6.1921   6.6032   6.6032   7.1653   7.2498   7.2895   7.2895   7.5890
    16.2058  17.1556  17.1556  17.5297  20.1207  20.3554

          k = 0.2000 0.4000-0.2000 (  8510 PWs)   bands (ev):

   -64.2851 -64.2822 -64.2799 -64.2799 -31.1096 -31.1096 -31.1041 -31.0906
   -31.0789 -31.0789 -31.0623 -31.0623 -31.0616 -31.0590 -31.0518 -31.0499
    -8.3874  -7.9848  -7.6322  -7.6321   4.3411   4.3411   4.5446   5.1844
     5.8452   5.8453   6.8372   6.9496   6.9497   7.2024   7.5215   7.5360
    15.7320  17.1039  18.2408  18.2408  19.4441  20.0339

          k = 0.2000-0.4000 0.0000 (  8538 PWs)   bands (ev):

   -64.2857 -64.2825 -64.2796 -64.2793 -31.1033 -31.0972 -31.0966 -31.0953
   -31.0835 -31.0800 -31.0663 -31.0654 -31.0651 -31.0584 -31.0561 -31.0487
    -8.4905  -8.0489  -7.6163  -7.5624   4.6046   4.8051   4.9353   5.0638
     5.6579   5.7140   6.6971   6.8173   6.8340   7.1835   7.3062   7.6583
    15.6414  17.2265  18.7471  18.9615  19.1571  19.2684

          k = 0.2000-0.4000 0.2000 (  8510 PWs)   bands (ev):

   -64.2851 -64.2822 -64.2799 -64.2799 -31.1096 -31.1096 -31.1041 -31.0906
   -31.0789 -31.0789 -31.0623 -31.0623 -31.0616 -31.0590 -31.0518 -31.0499
    -8.3874  -7.9848  -7.6322  -7.6321   4.3411   4.3411   4.5446   5.1844
     5.8452   5.8453   6.8372   6.9496   6.9497   7.2024   7.5215   7.5360
    15.7320  17.1039  18.2408  18.2408  19.4441  20.0339

          k = 0.2000-0.4000 0.4000 (  8499 PWs)   bands (ev):

   -64.2835 -64.2815 -64.2815 -64.2806 -31.1157 -31.1135 -31.1135 -31.1059
   -31.0720 -31.0655 -31.0655 -31.0567 -31.0560 -31.0548 -31.0548 -31.0488
    -8.1287  -7.8373  -7.8373  -7.7009   4.0448   4.1381   4.1381   4.4786
     6.1921   6.6032   6.6032   7.1653   7.2498   7.2895   7.2895   7.5890
    16.2058  17.1556  17.1556  17.5297  20.1206  20.3550

          k = 0.2000-0.4000-0.4000 (  8499 PWs)   bands (ev):

   -64.2835 -64.2815 -64.2815 -64.2806 -31.1157 -31.1135 -31.1135 -31.1059
   -31.0720 -31.0655 -31.0655 -31.0567 -31.0560 -31.0548 -31.0548 -31.0488
    -8.1287  -7.8373  -7.8373  -7.7009   4.0448   4.1381   4.1381   4.4786
     6.1921   6.6032   6.6032   7.1653   7.2498   7.2895   7.2895   7.5890
    16.2058  17.1556  17.1556  17.5297  20.1206  20.3552

          k = 0.2000-0.4000-0.2000 (  8510 PWs)   bands (ev):

   -64.2851 -64.2822 -64.2799 -64.2799 -31.1096 -31.1096 -31.1041 -31.0906
   -31.0789 -31.0789 -31.0623 -31.0623 -31.0616 -31.0590 -31.0518 -31.0499
    -8.3874  -7.9848  -7.6322  -7.6321   4.3411   4.3411   4.5446   5.1844
     5.8452   5.8453   6.8372   6.9496   6.9497   7.2024   7.5215   7.5360
    15.7320  17.1039  18.2408  18.2408  19.4441  20.0339

          k = 0.2000-0.2000 0.0000 (  8512 PWs)   bands (ev):

   -64.2883 -64.2799 -64.2799 -64.2790 -31.1080 -31.1080 -31.1073 -31.0847
   -31.0729 -31.0729 -31.0682 -31.0682 -31.0670 -31.0618 -31.0486 -31.0439
    -8.8483  -7.6962  -7.6961  -7.5568   4.3404   4.3404   4.4003   5.7445
     6.4888   6.4889   6.7057   6.7559   6.7559   6.8624   7.7349   7.9490
    14.2550  18.0103  18.1463  18.1463  18.3983  18.3983

          k = 0.2000-0.2000 0.2000 (  8517 PWs)   bands (ev):

   -64.2874 -64.2799 -64.2799 -64.2799 -31.1085 -31.1085 -31.1085 -31.0765
   -31.0764 -31.0764 -31.0728 -31.0648 -31.0648 -31.0648 -31.0461 -31.0461
    -8.7203  -7.6719  -7.6719  -7.6718   4.3531   4.3531   4.3531   6.1068
     6.1091   6.1092   6.1092   6.9532   6.9533   6.9533   7.8301   7.8301
    14.6515  17.9659  17.9659  17.9659  19.2158  19.2158

          k = 0.2000-0.2000 0.4000 (  8510 PWs)   bands (ev):

   -64.2851 -64.2822 -64.2799 -64.2799 -31.1096 -31.1096 -31.1041 -31.0906
   -31.0789 -31.0789 -31.0623 -31.0623 -31.0616 -31.0590 -31.0518 -31.0499
    -8.3874  -7.9848  -7.6322  -7.6321   4.3411   4.3411   4.5446   5.1844
     5.8452   5.8453   6.8372   6.9496   6.9497   7.2025   7.5215   7.5360
    15.7320  17.1039  18.2408  18.2408  19.4441  20.0339

          k = 0.2000-0.2000-0.4000 (  8510 PWs)   bands (ev):

   -64.2851 -64.2822 -64.2799 -64.2799 -31.1096 -31.1096 -31.1041 -31.0906
   -31.0789 -31.0789 -31.0623 -31.0623 -31.0616 -31.0590 -31.0518 -31.0499
    -8.3874  -7.9848  -7.6322  -7.6321   4.3411   4.3411   4.5446   5.1844
     5.8452   5.8453   6.8372   6.9496   6.9497   7.2025   7.5215   7.5360
    15.7320  17.1039  18.2408  18.2408  19.4441  20.0339

          k = 0.2000-0.2000-0.2000 (  8517 PWs)   bands (ev):

   -64.2874 -64.2799 -64.2799 -64.2799 -31.1085 -31.1085 -31.1085 -31.0765
   -31.0764 -31.0764 -31.0728 -31.0648 -31.0648 -31.0648 -31.0461 -31.0461
    -8.7203  -7.6719  -7.6719  -7.6718   4.3531   4.3531   4.3531   6.1068
     6.1091   6.1092   6.1092   6.9532   6.9533   6.9533   7.8301   7.8301
    14.6515  17.9659  17.9659  17.9659  19.2158  19.2158

          k = 0.4000 0.0000 0.0000 (  8542 PWs)   bands (ev):

   -64.2864 -64.2829 -64.2789 -64.2789 -31.1003 -31.1003 -31.0927 -31.0868
   -31.0868 -31.0735 -31.0735 -31.0703 -31.0617 -31.0617 -31.0529 -31.0529
    -8.6035  -8.1253  -7.5280  -7.5280   4.7601   4.7601   4.9403   5.5608
     5.5608   6.0583   6.3469   6.3469   7.1366   7.1366   7.5447   7.5447
    15.3077  16.9480  18.6064  19.1278  19.9456  19.9457

          k = 0.4000 0.0000 0.2000 (  8538 PWs)   bands (ev):

   -64.2857 -64.2825 -64.2796 -64.2793 -31.1033 -31.0972 -31.0966 -31.0953
   -31.0835 -31.0800 -31.0663 -31.0654 -31.0651 -31.0584 -31.0561 -31.0487
    -8.4905  -8.0489  -7.6163  -7.5624   4.6046   4.8051   4.9353   5.0638
     5.6579   5.7140   6.6971   6.8173   6.8340   7.1835   7.3062   7.6583
    15.6414  17.2265  18.7471  18.9614  19.1571  19.2684

          k = 0.4000 0.0000 0.4000 (  8510 PWs)   bands (ev):

   -64.2838 -64.2815 -64.2815 -64.2803 -31.1033 -31.1032 -31.1031 -31.0945
   -31.0869 -31.0750 -31.0750 -31.0645 -31.0568 -31.0549 -31.0549 -31.0480
    -8.2019  -7.8655  -7.8653  -7.6776   4.5832   4.5833   4.6169   4.9879
     5.4318   6.1433   6.1434   6.7441   7.2117   7.2689   7.2690   7.6309
    16.5379  17.7945  17.7945  18.2789  19.6316  19.6318

          k = 0.4000 0.0000-0.4000 (  8510 PWs)   bands (ev):

   -64.2838 -64.2815 -64.2815 -64.2803 -31.1033 -31.1032 -31.1031 -31.0945
   -31.0869 -31.0750 -31.0750 -31.0645 -31.0568 -31.0549 -31.0549 -31.0480
    -8.2019  -7.8655  -7.8653  -7.6776   4.5832   4.5833   4.6169   4.9879
     5.4318   6.1433   6.1434   6.7441   7.2117   7.2689   7.2690   7.6309
    16.5379  17.7945  17.7945  18.2789  19.6318  20.0768

          k = 0.4000 0.0000-0.2000 (  8538 PWs)   bands (ev):

   -64.2857 -64.2825 -64.2796 -64.2793 -31.1033 -31.0972 -31.0966 -31.0953
   -31.0835 -31.0800 -31.0663 -31.0654 -31.0651 -31.0584 -31.0561 -31.0487
    -8.4905  -8.0489  -7.6163  -7.5624   4.6046   4.8051   4.9353   5.0638
     5.6579   5.7140   6.6971   6.8173   6.8340   7.1835   7.3062   7.6583
    15.6414  17.2265  18.7471  18.9615  19.1571  19.2684

          k = 0.4000 0.2000 0.0000 (  8538 PWs)   bands (ev):

   -64.2857 -64.2825 -64.2796 -64.2793 -31.1033 -31.0972 -31.0966 -31.0953
   -31.0835 -31.0800 -31.0663 -31.0654 -31.0651 -31.0584 -31.0561 -31.0487
    -8.4905  -8.0489  -7.6163  -7.5624   4.6046   4.8051   4.9353   5.0638
     5.6579   5.7140   6.6971   6.8173   6.8340   7.1835   7.3062   7.6583
    15.6414  17.2265  18.7471  19.1572  19.2683  20.2428

          k = 0.4000 0.2000 0.2000 (  8510 PWs)   bands (ev):

   -64.2851 -64.2822 -64.2799 -64.2799 -31.1096 -31.1096 -31.1041 -31.0906
   -31.0789 -31.0789 -31.0623 -31.0623 -31.0616 -31.0590 -31.0518 -31.0499
    -8.3874  -7.9848  -7.6321  -7.6321   4.3411   4.3411   4.5446   5.1844
     5.8453   5.8453   6.8372   6.9496   6.9496   7.2024   7.5215   7.5360
    15.7320  17.1039  18.2408  18.2408  19.4441  20.0339

          k = 0.4000 0.2000 0.4000 (  8499 PWs)   bands (ev):

   -64.2835 -64.2815 -64.2815 -64.2806 -31.1157 -31.1135 -31.1135 -31.1059
   -31.0720 -31.0655 -31.0654 -31.0567 -31.0560 -31.0548 -31.0548 -31.0488
    -8.1287  -7.8374  -7.8373  -7.7009   4.0448   4.1381   4.1381   4.4786
     6.1921   6.6031   6.6032   7.1653   7.2498   7.2895   7.2896   7.5890
    16.2058  17.1556  17.1556  17.5297  20.1206  20.3539

          k = 0.4000 0.2000-0.4000 (  8499 PWs)   bands (ev):

   -64.2835 -64.2815 -64.2815 -64.2806 -31.1157 -31.1135 -31.1135 -31.1059
   -31.0720 -31.0655 -31.0654 -31.0567 -31.0560 -31.0548 -31.0548 -31.0488
    -8.1287  -7.8374  -7.8373  -7.7009   4.0448   4.1381   4.1381   4.4786
     6.1921   6.6031   6.6032   7.1653   7.2498   7.2895   7.2896   7.5890
    16.2058  17.1556  17.1556  17.5297  20.1206  20.3554

          k = 0.4000 0.2000-0.2000 (  8510 PWs)   bands (ev):

   -64.2851 -64.2822 -64.2799 -64.2799 -31.1096 -31.1096 -31.1041 -31.0906
   -31.0789 -31.0789 -31.0623 -31.0623 -31.0616 -31.0590 -31.0518 -31.0499
    -8.3874  -7.9848  -7.6321  -7.6321   4.3411   4.3411   4.5446   5.1844
     5.8453   5.8453   6.8372   6.9496   6.9496   7.2024   7.5215   7.5360
    15.7320  17.1039  18.2408  18.2408  19.4441  20.0339

          k = 0.4000 0.4000 0.0000 (  8510 PWs)   bands (ev):

   -64.2838 -64.2815 -64.2815 -64.2803 -31.1033 -31.1032 -31.1031 -31.0945
   -31.0869 -31.0750 -31.0750 -31.0645 -31.0568 -31.0549 -31.0549 -31.0480
    -8.2019  -7.8654  -7.8654  -7.6776   4.5832   4.5833   4.6169   4.9879
     5.4318   6.1434   6.1434   6.7441   7.2117   7.2690   7.2690   7.6309
    16.5379  17.7945  17.7945  18.2789  19.6317  20.0773

          k = 0.4000 0.4000 0.2000 (  8499 PWs)   bands (ev):

   -64.2835 -64.2815 -64.2815 -64.2806 -31.1157 -31.1135 -31.1135 -31.1059
   -31.0720 -31.0655 -31.0655 -31.0567 -31.0560 -31.0548 -31.0548 -31.0488
    -8.1287  -7.8374  -7.8373  -7.7009   4.0448   4.1381   4.1381   4.4786
     6.1921   6.6032   6.6032   7.1653   7.2498   7.2895   7.2895   7.5890
    16.2058  17.1556  17.1556  17.5297  20.1207  20.3553

          k = 0.4000 0.4000 0.4000 (  8465 PWs)   bands (ev):

   -64.2826 -64.2815 -64.2815 -64.2815 -31.1246 -31.1246 -31.1246 -31.1205
   -31.0565 -31.0565 -31.0565 -31.0537 -31.0537 -31.0537 -31.0510 -31.0510
    -7.9569  -7.7913  -7.7913  -7.7912   3.6472   3.6473   3.6473   3.8283
     7.0930   7.0931   7.0931   7.3514   7.3514   7.3515   7.4810   7.4810
    15.9512  16.4583  16.4583  16.4583  20.5584  20.5585

          k = 0.4000 0.4000-0.4000 (  8465 PWs)   bands (ev):

   -64.2826 -64.2815 -64.2815 -64.2815 -31.1246 -31.1246 -31.1246 -31.1205
   -31.0565 -31.0565 -31.0565 -31.0537 -31.0537 -31.0537 -31.0510 -31.0510
    -7.9569  -7.7913  -7.7913  -7.7912   3.6472   3.6473   3.6473   3.8283
     7.0930   7.0931   7.0931   7.3514   7.3514   7.3515   7.4810   7.4810
    15.9512  16.4583  16.4583  16.4583  20.5584  20.5585

          k = 0.4000 0.4000-0.2000 (  8499 PWs)   bands (ev):

   -64.2835 -64.2815 -64.2815 -64.2806 -31.1157 -31.1135 -31.1135 -31.1059
   -31.0720 -31.0655 -31.0655 -31.0567 -31.0560 -31.0548 -31.0548 -31.0488
    -8.1287  -7.8374  -7.8373  -7.7009   4.0448   4.1381   4.1381   4.4786
     6.1921   6.6032   6.6032   7.1653   7.2498   7.2895   7.2895   7.5890
    16.2058  17.1556  17.1556  17.5297  20.1206  20.3554

          k = 0.4000-0.4000 0.0000 (  8510 PWs)   bands (ev):

   -64.2838 -64.2815 -64.2815 -64.2803 -31.1033 -31.1032 -31.1031 -31.0945
   -31.0869 -31.0750 -31.0750 -31.0645 -31.0568 -31.0549 -31.0549 -31.0480
    -8.2019  -7.8654  -7.8654  -7.6776   4.5832   4.5833   4.6169   4.9879
     5.4318   6.1434   6.1434   6.7441   7.2117   7.2690   7.2690   7.6309
    16.5379  17.7945  17.7945  18.2789  19.6319  20.0774

          k = 0.4000-0.4000 0.2000 (  8499 PWs)   bands (ev):

   -64.2835 -64.2815 -64.2815 -64.2806 -31.1157 -31.1135 -31.1135 -31.1059
   -31.0720 -31.0655 -31.0655 -31.0567 -31.0560 -31.0548 -31.0548 -31.0488
    -8.1287  -7.8374  -7.8373  -7.7009   4.0448   4.1381   4.1381   4.4786
     6.1921   6.6032   6.6032   7.1653   7.2498   7.2895   7.2895   7.5890
    16.2058  17.1556  17.1556  17.5297  20.1209  20.3554

          k = 0.4000-0.4000 0.4000 (  8465 PWs)   bands (ev):

   -64.2826 -64.2815 -64.2815 -64.2815 -31.1246 -31.1246 -31.1246 -31.1205
   -31.0565 -31.0565 -31.0565 -31.0537 -31.0537 -31.0537 -31.0510 -31.0510
    -7.9569  -7.7913  -7.7913  -7.7912   3.6472   3.6473   3.6473   3.8283
     7.0930   7.0931   7.0931   7.3514   7.3514   7.3515   7.4810   7.4810
    15.9512  16.4583  16.4583  16.4583  20.5584  20.5585

          k = 0.4000-0.4000-0.4000 (  8465 PWs)   bands (ev):

   -64.2826 -64.2815 -64.2815 -64.2815 -31.1246 -31.1246 -31.1246 -31.1205
   -31.0565 -31.0565 -31.0565 -31.0537 -31.0537 -31.0537 -31.0510 -31.0510
    -7.9569  -7.7913  -7.7913  -7.7912   3.6472   3.6473   3.6473   3.8283
     7.0930   7.0931   7.0931   7.3514   7.3514   7.3515   7.4810   7.4810
    15.9512  16.4583  16.4583  16.4583  20.5584  20.5585

          k = 0.4000-0.4000-0.2000 (  8499 PWs)   bands (ev):

   -64.2835 -64.2815 -64.2815 -64.2806 -31.1157 -31.1135 -31.1135 -31.1059
   -31.0720 -31.0655 -31.0655 -31.0567 -31.0560 -31.0548 -31.0548 -31.0488
    -8.1287  -7.8374  -7.8373  -7.7009   4.0448   4.1381   4.1381   4.4786
     6.1921   6.6032   6.6032   7.1653   7.2498   7.2895   7.2895   7.5890
    16.2058  17.1556  17.1556  17.5297  20.1205  20.3553

          k = 0.4000-0.2000 0.0000 (  8538 PWs)   bands (ev):

   -64.2857 -64.2825 -64.2796 -64.2793 -31.1033 -31.0972 -31.0966 -31.0953
   -31.0835 -31.0800 -31.0663 -31.0654 -31.0651 -31.0584 -31.0561 -31.0487
    -8.4905  -8.0489  -7.6163  -7.5624   4.6046   4.8051   4.9353   5.0638
     5.6579   5.7140   6.6971   6.8173   6.8340   7.1835   7.3062   7.6583
    15.6414  17.2265  18.7471  18.9614  19.1571  19.2684

          k = 0.4000-0.2000 0.2000 (  8510 PWs)   bands (ev):

   -64.2851 -64.2822 -64.2799 -64.2799 -31.1096 -31.1096 -31.1041 -31.0906
   -31.0789 -31.0789 -31.0623 -31.0623 -31.0616 -31.0590 -31.0518 -31.0499
    -8.3874  -7.9848  -7.6321  -7.6321   4.3411   4.3411   4.5446   5.1844
     5.8453   5.8453   6.8372   6.9496   6.9496   7.2024   7.5215   7.5360
    15.7320  17.1039  18.2408  18.2408  19.4441  20.0339

          k = 0.4000-0.2000 0.4000 (  8499 PWs)   bands (ev):

   -64.2835 -64.2815 -64.2815 -64.2806 -31.1157 -31.1135 -31.1135 -31.1059
   -31.0720 -31.0655 -31.0654 -31.0567 -31.0560 -31.0548 -31.0548 -31.0488
    -8.1287  -7.8374  -7.8373  -7.7009   4.0448   4.1381   4.1381   4.4786
     6.1921   6.6031   6.6032   7.1653   7.2498   7.2895   7.2896   7.5890
    16.2058  17.1556  17.1556  17.5297  20.1206  20.3554

          k = 0.4000-0.2000-0.4000 (  8499 PWs)   bands (ev):

   -64.2835 -64.2815 -64.2815 -64.2806 -31.1157 -31.1135 -31.1135 -31.1059
   -31.0720 -31.0655 -31.0654 -31.0567 -31.0560 -31.0548 -31.0548 -31.0488
    -8.1287  -7.8374  -7.8373  -7.7009   4.0448   4.1381   4.1381   4.4786
     6.1921   6.6031   6.6032   7.1653   7.2498   7.2895   7.2896   7.5890
    16.2058  17.1556  17.1556  17.5297  20.1210  20.3534

          k = 0.4000-0.2000-0.2000 (  8510 PWs)   bands (ev):

   -64.2851 -64.2822 -64.2799 -64.2799 -31.1096 -31.1096 -31.1041 -31.0906
   -31.0789 -31.0789 -31.0623 -31.0623 -31.0616 -31.0590 -31.0518 -31.0499
    -8.3874  -7.9848  -7.6321  -7.6321   4.3411   4.3411   4.5446   5.1844
     5.8453   5.8453   6.8372   6.9496   6.9496   7.2024   7.5215   7.5360
    15.7320  17.1039  18.2408  18.2408  19.4441  20.0339

     the Fermi energy is    10.0544 ev

!    total energy              =    -608.51633070 Ry
     estimated scf accuracy    <       0.00000002 Ry
     smearing contrib. (-TS)   =      -0.00000000 Ry
     internal energy E=F+TS    =    -608.51633070 Ry

     The total energy is F=E-TS. E is the sum of the following terms:
     one-electron contribution =    -297.28485513 Ry
     hartree contribution      =     166.02663794 Ry
     xc contribution           =     -97.98764698 Ry
     ewald contribution        =    -379.16241501 Ry
     DFT-D3 Dispersion         =      -0.10805152 Ry

     convergence has been achieved in   8 iterations

     Forces acting on atoms (cartesian axes, Ry/au):

     atom    1 type  1   force =     0.00000019    0.00000064   -0.00000025
     atom    2 type  1   force =     0.00000006    0.00000052   -0.00000001
     atom    3 type  1   force =    -0.00000013    0.00000001   -0.00000018
     atom    4 type  1   force =    -0.00000007   -0.00000112    0.00000051
     atom    5 type  2   force =    -0.00000020    0.00000007   -0.00000054
     atom    6 type  2   force =     0.00000009    0.00000073    0.00000016
     atom    7 type  2   force =    -0.00000012   -0.00000046    0.00000006
     atom    8 type  2   force =     0.00000019   -0.00000039    0.00000026

     Total force =     0.000002     Total SCF correction =     0.000016
     SCF correction compared to forces is large: reduce conv_thr to get better values


     Computing stress (Cartesian axis) and pressure

          total   stress  (Ry/bohr**3)                   (kbar)     P=       12.04
   0.00008183   0.00000000   0.00000000           12.04        0.00        0.00
   0.00000000   0.00008183  -0.00000000            0.00       12.04       -0.00
   0.00000000  -0.00000000   0.00008183            0.00       -0.00       12.04


     BFGS Geometry Optimization

     number of scf cycles    =   1
     number of bfgs steps    =   0

     enthalpy new            =    -608.6019683393 Ry

     new trust radius        =       0.0282595795 bohr
     new conv_thr            =       0.0000010000 Ry

     new unit-cell volume =    513.48474 a.u.^3 (    76.09059 Ang^3 )
     density =      3.51825 g/cm^3

CELL_PARAMETERS (angstrom)
   4.237506036   0.000000098   0.000000009
   0.000000098   4.237505847  -0.000000077
   0.000000009  -0.000000077   4.237505754

ATOMIC_POSITIONS (angstrom)
Mg            0.0000001035        0.0000003422       -0.0000001340
Mg            0.0000000857        2.1187531596        2.1187528311
Mg            2.1187529516        0.0000000144        2.1187527844
Mg            2.1187530296        2.1187523767        0.0000002386
O             2.1187529627        2.1187529706        2.1187525564
O             2.1187530635        0.0000004392        0.0000000878
O            -0.0000000161        2.1187526787       -0.0000000090
O             0.0000001055       -0.0000002447        2.1187530174


     NEW-OLD atomic charge density approx. for the potential
     extrapolated charge   65.19342, renormalised to   64.00000

     total cpu time spent up to now is       48.5 secs

     Self-consistent Calculation

     iteration #  1     ecut=   100.00 Ry     beta= 0.50
     Davidson diagonalization with overlap
     c_bands:  1 eigenvalues not converged
     c_bands:  1 eigenvalues not converged
     c_bands:  1 eigenvalues not converged
     c_bands:  1 eigenvalues not converged
     ethr =  1.00E-06,  avg # of iterations =  7.0

     total cpu time spent up to now is       57.8 secs

     total energy              =    -608.46783984 Ry
     estimated scf accuracy    <       0.02787854 Ry

     iteration #  2     ecut=   100.00 Ry     beta= 0.50
     Davidson diagonalization with overlap
     ethr =  4.36E-05,  avg # of iterations =  3.0

     total cpu time spent up to now is       63.1 secs

     total energy              =    -608.51715670 Ry
     estimated scf accuracy    <       0.04174657 Ry

     iteration #  3     ecut=   100.00 Ry     beta= 0.50
     Davidson diagonalization with overlap
     ethr =  4.36E-05,  avg # of iterations =  2.0

     total cpu time spent up to now is       66.7 secs

     total energy              =    -608.51702177 Ry
     estimated scf accuracy    <       0.00936586 Ry

     iteration #  4     ecut=   100.00 Ry     beta= 0.50
     Davidson diagonalization with overlap
     ethr =  1.46E-05,  avg # of iterations =  1.1

     total cpu time spent up to now is       70.0 secs

     total energy              =    -608.51559197 Ry
     estimated scf accuracy    <       0.00325939 Ry

     iteration #  5     ecut=   100.00 Ry     beta= 0.50
     Davidson diagonalization with overlap
     ethr =  5.09E-06,  avg # of iterations =  2.1

     total cpu time spent up to now is       74.2 secs

     total energy              =    -608.51614087 Ry
     estimated scf accuracy    <       0.00001528 Ry

     iteration #  6     ecut=   100.00 Ry     beta= 0.50
     Davidson diagonalization with overlap
     ethr =  2.39E-08,  avg # of iterations =  2.1

     total cpu time spent up to now is       77.8 secs

     total energy              =    -608.51614096 Ry
     estimated scf accuracy    <       0.00001067 Ry

     iteration #  7     ecut=   100.00 Ry     beta= 0.50
     Davidson diagonalization with overlap
     ethr =  1.67E-08,  avg # of iterations =  1.3

     total cpu time spent up to now is       81.1 secs

     total energy              =    -608.51613804 Ry
     estimated scf accuracy    <       0.00000555 Ry

     iteration #  8     ecut=   100.00 Ry     beta= 0.50
     Davidson diagonalization with overlap
     ethr =  8.67E-09,  avg # of iterations =  2.1

     total cpu time spent up to now is       85.3 secs

     End of self-consistent calculation

          k = 0.0000 0.0000 0.0000 (  8409 PWs)   bands (ev):

   -64.5854 -64.5750 -64.5750 -64.5750 -31.4043 -31.4043 -31.4043 -31.3635
   -31.3635 -31.3635 -31.3635 -31.3635 -31.3635 -31.3370 -31.3370 -31.3370
    -9.2652  -7.7755  -7.7755  -7.7755   3.8669   3.8669   3.8669   6.5245
     6.5245   6.5245   6.5245   6.5245   6.5245   7.8337   7.8337   7.8337
    12.4264  17.0351  17.0351  17.6502  17.6502  17.6502

          k =-0.0000 0.0000 0.1987 (  8501 PWs)   bands (ev):

   -64.5844 -64.5760 -64.5750 -64.5750 -31.4004 -31.4004 -31.3986 -31.3674
   -31.3674 -31.3642 -31.3642 -31.3610 -31.3610 -31.3441 -31.3395 -31.3395
    -9.1260  -7.9195  -7.7550  -7.7550   4.0555   4.0555   4.0862   6.1689
     6.1689   6.3772   6.3773   6.6312   6.6312   7.1271   7.6861   7.6861
    13.2521  17.3611  17.5028  17.5900  17.5900  18.2277

          k =-0.0000 0.0000 0.3975 (  8542 PWs)   bands (ev):

   -64.5818 -64.5786 -64.5750 -64.5750 -31.3901 -31.3901 -31.3829 -31.3776
   -31.3776 -31.3652 -31.3652 -31.3621 -31.3543 -31.3543 -31.3461 -31.3461
    -8.7578  -8.2962  -7.7215  -7.7215   4.5945   4.5945   4.7593   5.3815
     5.3815   5.8519   6.1502   6.1502   6.9259   6.9259   7.3263   7.3263
    14.8918  16.5210  18.3343  18.7979  18.7979  19.4918

          k =-0.0000 0.1987 0.0000 (  8501 PWs)   bands (ev):

   -64.5844 -64.5760 -64.5750 -64.5750 -31.4004 -31.4004 -31.3986 -31.3674
   -31.3674 -31.3642 -31.3642 -31.3610 -31.3610 -31.3441 -31.3395 -31.3395
    -9.1260  -7.9195  -7.7550  -7.7550   4.0555   4.0555   4.0862   6.1689
     6.1689   6.3772   6.3773   6.6312   6.6312   7.1271   7.6861   7.6861
    13.2521  17.3611  17.5028  17.5900  17.5900  18.2277

          k =-0.0000 0.1987 0.1987 (  8512 PWs)   bands (ev):

   -64.5835 -64.5759 -64.5759 -64.5751 -31.3972 -31.3972 -31.3966 -31.3756
   -31.3647 -31.3647 -31.3603 -31.3603 -31.3593 -31.3543 -31.3421 -31.3378
    -8.9944  -7.8829  -7.8828  -7.7489   4.1775   4.1775   4.2403   5.5593
     6.2913   6.2913   6.4875   6.5526   6.5526   6.6582   7.5129   7.7243
    13.8451  17.6989  17.8648  17.8648  17.9620  17.9620

          k =-0.0000 0.1987 0.3975 (  8538 PWs)   bands (ev):

   -64.5812 -64.5782 -64.5756 -64.5753 -31.3928 -31.3871 -31.3867 -31.3854
   -31.3745 -31.3712 -31.3586 -31.3577 -31.3574 -31.3513 -31.3491 -31.3422
    -8.6490  -8.2230  -7.8068  -7.7551   4.4383   4.6267   4.7670   4.8904
     5.4583   5.5323   6.4966   6.6152   6.6304   6.9740   7.0935   7.4404
    15.2268  16.8021  18.4008  18.6683  18.7437  18.9359

          k =-0.0000 0.1987-0.3975 (  8538 PWs)   bands (ev):

   -64.5812 -64.5782 -64.5756 -64.5753 -31.3928 -31.3871 -31.3867 -31.3854
   -31.3745 -31.3712 -31.3586 -31.3577 -31.3574 -31.3513 -31.3491 -31.3422
    -8.6490  -8.2230  -7.8068  -7.7551   4.4383   4.6267   4.7670   4.8904
     5.4583   5.5323   6.4966   6.6152   6.6304   6.9740   7.0935   7.4404
    15.2268  16.8021  18.4008  18.6683  18.7437  18.9359

          k =-0.0000 0.1987-0.1987 (  8512 PWs)   bands (ev):

   -64.5835 -64.5759 -64.5759 -64.5751 -31.3972 -31.3972 -31.3966 -31.3756
   -31.3647 -31.3647 -31.3603 -31.3603 -31.3593 -31.3543 -31.3421 -31.3378
    -8.9944  -7.8829  -7.8828  -7.7489   4.1775   4.1775   4.2403   5.5593
     6.2913   6.2913   6.4875   6.5526   6.5526   6.6582   7.5129   7.7243
    13.8451  17.6987  17.8648  17.8648  17.9620  17.9620

          k =-0.0000 0.3975 0.0000 (  8542 PWs)   bands (ev):

   -64.5818 -64.5786 -64.5750 -64.5750 -31.3901 -31.3901 -31.3829 -31.3776
   -31.3776 -31.3652 -31.3652 -31.3621 -31.3543 -31.3543 -31.3461 -31.3461
    -8.7578  -8.2962  -7.7215  -7.7215   4.5945   4.5945   4.7593   5.3815
     5.3815   5.8519   6.1502   6.1502   6.9259   6.9259   7.3263   7.3263
    14.8918  16.5210  18.3343  18.7979  18.7979  19.4918

          k =-0.0000 0.3975 0.1987 (  8538 PWs)   bands (ev):

   -64.5812 -64.5782 -64.5756 -64.5753 -31.3928 -31.3871 -31.3867 -31.3854
   -31.3745 -31.3712 -31.3586 -31.3577 -31.3574 -31.3513 -31.3491 -31.3422
    -8.6490  -8.2230  -7.8068  -7.7551   4.4383   4.6267   4.7670   4.8904
     5.4583   5.5323   6.4966   6.6152   6.6304   6.9740   7.0935   7.4404
    15.2268  16.8021  18.4008  18.6683  18.7437  18.9359

          k =-0.0000 0.3975 0.3975 (  8510 PWs)   bands (ev):

   -64.5794 -64.5773 -64.5773 -64.5762 -31.3927 -31.3927 -31.3926 -31.3846
   -31.3777 -31.3666 -31.3666 -31.3569 -31.3498 -31.3480 -31.3480 -31.3416
    -8.3712  -8.0471  -8.0471  -7.8665   4.4111   4.4111   4.4481   4.8027
     5.2556   5.9543   5.9543   6.5436   7.0048   7.0608   7.0608   7.4163
    16.1264  17.3853  17.3853  17.9023  19.2943  19.7078

          k =-0.0000 0.3975-0.3975 (  8510 PWs)   bands (ev):

   -64.5794 -64.5773 -64.5773 -64.5762 -31.3927 -31.3927 -31.3926 -31.3846
   -31.3777 -31.3666 -31.3666 -31.3569 -31.3498 -31.3480 -31.3480 -31.3416
    -8.3712  -8.0471  -8.0471  -7.8665   4.4111   4.4111   4.4481   4.8027
     5.2556   5.9543   5.9543   6.5436   7.0048   7.0608   7.0608   7.4163
    16.1264  17.3853  17.3853  17.9023  19.2943  19.7069

          k =-0.0000 0.3975-0.1987 (  8538 PWs)   bands (ev):

   -64.5812 -64.5782 -64.5756 -64.5753 -31.3928 -31.3871 -31.3867 -31.3854
   -31.3745 -31.3712 -31.3586 -31.3577 -31.3574 -31.3513 -31.3491 -31.3422
    -8.6490  -8.2230  -7.8068  -7.7551   4.4383   4.6267   4.7670   4.8904
     5.4583   5.5323   6.4966   6.6152   6.6304   6.9740   7.0935   7.4404
    15.2268  16.8021  18.4008  18.6683  18.7437  18.9359

          k = 0.1987-0.0000-0.0000 (  8501 PWs)   bands (ev):

   -64.5844 -64.5760 -64.5750 -64.5750 -31.4004 -31.4004 -31.3986 -31.3674
   -31.3674 -31.3642 -31.3642 -31.3610 -31.3610 -31.3441 -31.3395 -31.3395
    -9.1260  -7.9195  -7.7550  -7.7550   4.0555   4.0555   4.0862   6.1689
     6.1689   6.3772   6.3772   6.6312   6.6312   7.1271   7.6861   7.6861
    13.2521  17.3611  17.5028  17.5900  17.5900  18.2277

          k = 0.1987-0.0000 0.1987 (  8512 PWs)   bands (ev):

   -64.5835 -64.5759 -64.5759 -64.5751 -31.3972 -31.3972 -31.3966 -31.3756
   -31.3647 -31.3647 -31.3603 -31.3603 -31.3593 -31.3543 -31.3421 -31.3378
    -8.9944  -7.8829  -7.8828  -7.7489   4.1775   4.1775   4.2403   5.5593
     6.2913   6.2913   6.4875   6.5526   6.5526   6.6582   7.5129   7.7243
    13.8451  17.6989  17.8648  17.8648  17.9620  17.9620

          k = 0.1987 0.0000 0.3975 (  8538 PWs)   bands (ev):

   -64.5812 -64.5782 -64.5756 -64.5753 -31.3928 -31.3871 -31.3867 -31.3854
   -31.3745 -31.3712 -31.3586 -31.3577 -31.3574 -31.3513 -31.3491 -31.3422
    -8.6490  -8.2230  -7.8068  -7.7551   4.4383   4.6267   4.7670   4.8904
     5.4583   5.5323   6.4966   6.6152   6.6304   6.9740   7.0935   7.4404
    15.2268  16.8021  18.4008  18.7437  18.9359  19.8612

          k = 0.1987-0.0000-0.3975 (  8538 PWs)   bands (ev):

   -64.5812 -64.5782 -64.5756 -64.5753 -31.3928 -31.3871 -31.3867 -31.3854
   -31.3745 -31.3712 -31.3586 -31.3577 -31.3574 -31.3513 -31.3491 -31.3422
    -8.6490  -8.2230  -7.8068  -7.7551   4.4383   4.6267   4.7670   4.8904
     5.4583   5.5323   6.4966   6.6152   6.6304   6.9740   7.0935   7.4404
    15.2268  16.8021  18.4008  18.6683  18.7437  18.9360

          k = 0.1987-0.0000-0.1987 (  8512 PWs)   bands (ev):

   -64.5835 -64.5759 -64.5759 -64.5751 -31.3972 -31.3972 -31.3966 -31.3756
   -31.3647 -31.3647 -31.3603 -31.3603 -31.3593 -31.3543 -31.3421 -31.3378
    -8.9944  -7.8829  -7.8828  -7.7489   4.1775   4.1775   4.2403   5.5593
     6.2913   6.2913   6.4875   6.5526   6.5526   6.6582   7.5129   7.7243
    13.8451  17.6989  17.8648  17.8648  17.9620  17.9620

          k = 0.1987 0.1987 0.0000 (  8512 PWs)   bands (ev):

   -64.5835 -64.5759 -64.5759 -64.5751 -31.3972 -31.3972 -31.3966 -31.3756
   -31.3647 -31.3647 -31.3603 -31.3603 -31.3593 -31.3543 -31.3421 -31.3378
    -8.9944  -7.8829  -7.8828  -7.7489   4.1775   4.1775   4.2403   5.5593
     6.2913   6.2913   6.4875   6.5526   6.5526   6.6582   7.5129   7.7243
    13.8451  17.6989  17.8648  17.8648  17.9620  17.9620

          k = 0.1987 0.1987 0.1987 (  8517 PWs)   bands (ev):

   -64.5827 -64.5759 -64.5759 -64.5759 -31.3976 -31.3976 -31.3976 -31.3680
   -31.3680 -31.3680 -31.3645 -31.3572 -31.3572 -31.3572 -31.3398 -31.3398
    -8.8709  -7.8600  -7.8600  -7.8600   4.1903   4.1903   4.1903   5.8990
     5.9193   5.9193   5.9193   6.7476   6.7476   6.7476   7.6080   7.6080
    14.2443  17.6220  17.6220  17.6221  18.8207  18.8207

          k = 0.1987 0.1987 0.3975 (  8510 PWs)   bands (ev):

   -64.5806 -64.5780 -64.5759 -64.5759 -31.3986 -31.3986 -31.3934 -31.3810
   -31.3703 -31.3703 -31.3549 -31.3549 -31.3543 -31.3518 -31.3452 -31.3434
    -8.5499  -8.1618  -7.8226  -7.8226   4.1794   4.1794   4.3720   4.9948
     5.6612   5.6612   6.6357   6.7458   6.7458   6.9927   7.3072   7.3200
    15.3284  16.7068  17.8797  17.8797  19.1049  19.6302

          k = 0.1987 0.1987-0.3975 (  8510 PWs)   bands (ev):

   -64.5806 -64.5780 -64.5759 -64.5759 -31.3986 -31.3986 -31.3934 -31.3810
   -31.3703 -31.3703 -31.3549 -31.3549 -31.3543 -31.3518 -31.3452 -31.3434
    -8.5499  -8.1618  -7.8226  -7.8226   4.1794   4.1794   4.3720   4.9948
     5.6612   5.6612   6.6357   6.7458   6.7458   6.9927   7.3072   7.3200
    15.3284  16.7068  17.8797  17.8797  19.1049  19.6302

          k = 0.1987 0.1987-0.1987 (  8517 PWs)   bands (ev):

   -64.5827 -64.5759 -64.5759 -64.5759 -31.3976 -31.3976 -31.3976 -31.3680
   -31.3680 -31.3680 -31.3645 -31.3572 -31.3572 -31.3572 -31.3398 -31.3398
    -8.8709  -7.8600  -7.8600  -7.8600   4.1903   4.1903   4.1903   5.8990
     5.9193   5.9193   5.9193   6.7476   6.7476   6.7476   7.6080   7.6080
    14.2443  17.6220  17.6220  17.6221  18.8207  18.8207

          k = 0.1987 0.3975 0.0000 (  8538 PWs)   bands (ev):

   -64.5812 -64.5782 -64.5756 -64.5753 -31.3928 -31.3871 -31.3867 -31.3854
   -31.3745 -31.3712 -31.3586 -31.3577 -31.3574 -31.3513 -31.3491 -31.3422
    -8.6490  -8.2230  -7.8068  -7.7551   4.4383   4.6267   4.7671   4.8904
     5.4583   5.5323   6.4966   6.6152   6.6304   6.9740   7.0935   7.4404
    15.2268  16.8021  18.4008  18.6683  18.7437  18.9360

          k = 0.1987 0.3975 0.1987 (  8510 PWs)   bands (ev):

   -64.5806 -64.5780 -64.5759 -64.5759 -31.3986 -31.3986 -31.3934 -31.3810
   -31.3703 -31.3703 -31.3549 -31.3549 -31.3543 -31.3518 -31.3452 -31.3434
    -8.5499  -8.1618  -7.8226  -7.8226   4.1794   4.1794   4.3720   4.9948
     5.6612   5.6612   6.6357   6.7458   6.7458   6.9927   7.3072   7.3200
    15.3284  16.7068  17.8797  17.8797  19.1049  19.6301

          k = 0.1987 0.3975 0.3975 (  8499 PWs)   bands (ev):

   -64.5791 -64.5773 -64.5773 -64.5765 -31.4043 -31.4022 -31.4022 -31.3951
   -31.3639 -31.3578 -31.3578 -31.3497 -31.3490 -31.3479 -31.3479 -31.3424
    -8.3011  -8.0207  -8.0207  -7.8896   3.8873   3.9759   3.9759   4.3052
     6.0022   6.4062   6.4062   6.9575   7.0424   7.0811   7.0811   7.3754
    15.8192  16.7807  16.7807  17.1667  19.7274  19.7274

          k = 0.1987 0.3975-0.3975 (  8499 PWs)   bands (ev):

   -64.5791 -64.5773 -64.5773 -64.5765 -31.4043 -31.4022 -31.4022 -31.3951
   -31.3639 -31.3578 -31.3578 -31.3497 -31.3490 -31.3479 -31.3479 -31.3424
    -8.3011  -8.0207  -8.0207  -7.8896   3.8873   3.9759   3.9759   4.3052
     6.0022   6.4062   6.4062   6.9575   7.0424   7.0811   7.0811   7.3754
    15.8192  16.7807  16.7807  17.1667  19.7275  19.9402

          k = 0.1987 0.3975-0.1987 (  8510 PWs)   bands (ev):

   -64.5806 -64.5780 -64.5759 -64.5759 -31.3986 -31.3986 -31.3934 -31.3810
   -31.3703 -31.3703 -31.3549 -31.3549 -31.3543 -31.3518 -31.3452 -31.3434
    -8.5499  -8.1618  -7.8226  -7.8226   4.1794   4.1794   4.3720   4.9948
     5.6612   5.6612   6.6357   6.7458   6.7458   6.9927   7.3072   7.3200
    15.3284  16.7068  17.8797  17.8797  19.1049  19.6301

          k = 0.1987-0.3975-0.0000 (  8538 PWs)   bands (ev):

   -64.5812 -64.5782 -64.5756 -64.5753 -31.3928 -31.3871 -31.3867 -31.3854
   -31.3745 -31.3712 -31.3586 -31.3577 -31.3574 -31.3513 -31.3491 -31.3422
    -8.6490  -8.2230  -7.8068  -7.7551   4.4383   4.6267   4.7671   4.8904
     5.4583   5.5323   6.4966   6.6152   6.6304   6.9740   7.0935   7.4404
    15.2268  16.8021  18.4008  18.6683  18.7437  18.9360

          k = 0.1987-0.3975 0.1987 (  8510 PWs)   bands (ev):

   -64.5806 -64.5780 -64.5759 -64.5759 -31.3986 -31.3986 -31.3934 -31.3810
   -31.3703 -31.3703 -31.3549 -31.3549 -31.3543 -31.3518 -31.3452 -31.3434
    -8.5499  -8.1618  -7.8226  -7.8226   4.1794   4.1794   4.3720   4.9948
     5.6612   5.6612   6.6357   6.7458   6.7458   6.9927   7.3072   7.3200
    15.3284  16.7068  17.8797  17.8797  19.1049  19.6301

          k = 0.1987-0.3975 0.3975 (  8499 PWs)   bands (ev):

   -64.5791 -64.5773 -64.5773 -64.5765 -31.4043 -31.4022 -31.4022 -31.3951
   -31.3639 -31.3578 -31.3578 -31.3497 -31.3490 -31.3479 -31.3479 -31.3424
    -8.3011  -8.0207  -8.0207  -7.8896   3.8873   3.9759   3.9759   4.3052
     6.0022   6.4062   6.4062   6.9575   7.0424   7.0811   7.0811   7.3754
    15.8192  16.7807  16.7807  17.1667  19.7274  19.7274

          k = 0.1987-0.3975-0.3975 (  8499 PWs)   bands (ev):

   -64.5791 -64.5773 -64.5773 -64.5765 -31.4043 -31.4022 -31.4022 -31.3951
   -31.3639 -31.3578 -31.3578 -31.3497 -31.3490 -31.3479 -31.3479 -31.3424
    -8.3011  -8.0207  -8.0207  -7.8896   3.8873   3.9759   3.9759   4.3052
     6.0022   6.4062   6.4062   6.9575   7.0424   7.0811   7.0811   7.3754
    15.8192  16.7807  16.7807  17.1667  19.7274  19.9390

          k = 0.1987-0.3975-0.1987 (  8510 PWs)   bands (ev):

   -64.5806 -64.5780 -64.5759 -64.5759 -31.3986 -31.3986 -31.3934 -31.3810
   -31.3703 -31.3703 -31.3549 -31.3549 -31.3543 -31.3518 -31.3452 -31.3434
    -8.5499  -8.1618  -7.8226  -7.8226   4.1794   4.1794   4.3720   4.9948
     5.6612   5.6612   6.6357   6.7458   6.7458   6.9927   7.3072   7.3200
    15.3284  16.7068  17.8797  17.8797  19.1049  19.6301

          k = 0.1987-0.1987-0.0000 (  8512 PWs)   bands (ev):

   -64.5835 -64.5759 -64.5759 -64.5751 -31.3972 -31.3972 -31.3966 -31.3756
   -31.3647 -31.3647 -31.3603 -31.3603 -31.3593 -31.3543 -31.3421 -31.3378
    -8.9944  -7.8829  -7.8828  -7.7489   4.1775   4.1775   4.2403   5.5593
     6.2913   6.2913   6.4875   6.5526   6.5526   6.6582   7.5129   7.7243
    13.8451  17.6989  17.8648  17.8648  17.9620  17.9620

          k = 0.1987-0.1987 0.1987 (  8517 PWs)   bands (ev):

   -64.5827 -64.5759 -64.5759 -64.5759 -31.3976 -31.3976 -31.3976 -31.3680
   -31.3680 -31.3680 -31.3645 -31.3572 -31.3572 -31.3572 -31.3398 -31.3398
    -8.8709  -7.8600  -7.8600  -7.8600   4.1903   4.1903   4.1903   5.8990
     5.9193   5.9193   5.9193   6.7476   6.7476   6.7476   7.6080   7.6080
    14.2443  17.6220  17.6220  17.6221  18.8207  18.8207

          k = 0.1987-0.1987 0.3975 (  8510 PWs)   bands (ev):

   -64.5806 -64.5780 -64.5759 -64.5759 -31.3986 -31.3986 -31.3934 -31.3810
   -31.3703 -31.3703 -31.3549 -31.3549 -31.3543 -31.3518 -31.3452 -31.3434
    -8.5499  -8.1618  -7.8226  -7.8226   4.1794   4.1794   4.3720   4.9948
     5.6612   5.6612   6.6357   6.7458   6.7458   6.9927   7.3072   7.3200
    15.3284  16.7068  17.8797  17.8797  19.1049  19.6302

          k = 0.1987-0.1987-0.3975 (  8510 PWs)   bands (ev):

   -64.5806 -64.5780 -64.5759 -64.5759 -31.3986 -31.3986 -31.3934 -31.3810
   -31.3703 -31.3703 -31.3549 -31.3549 -31.3543 -31.3518 -31.3452 -31.3434
    -8.5499  -8.1618  -7.8226  -7.8226   4.1794   4.1794   4.3720   4.9948
     5.6612   5.6612   6.6357   6.7458   6.7458   6.9927   7.3072   7.3200
    15.3284  16.7068  17.8797  17.8797  19.1049  19.6302

          k = 0.1987-0.1987-0.1987 (  8517 PWs)   bands (ev):

   -64.5827 -64.5759 -64.5759 -64.5759 -31.3976 -31.3976 -31.3976 -31.3680
   -31.3680 -31.3680 -31.3645 -31.3572 -31.3572 -31.3572 -31.3398 -31.3398
    -8.8709  -7.8600  -7.8600  -7.8600   4.1903   4.1903   4.1903   5.8990
     5.9193   5.9193   5.9193   6.7476   6.7476   6.7476   7.6080   7.6080
    14.2443  17.6220  17.6220  17.6221  18.8207  18.8207

          k = 0.3975-0.0000-0.0000 (  8542 PWs)   bands (ev):

   -64.5818 -64.5786 -64.5750 -64.5750 -31.3901 -31.3901 -31.3829 -31.3776
   -31.3776 -31.3652 -31.3652 -31.3621 -31.3543 -31.3543 -31.3461 -31.3461
    -8.7578  -8.2962  -7.7215  -7.7215   4.5945   4.5945   4.7593   5.3815
     5.3815   5.8519   6.1502   6.1502   6.9259   6.9259   7.3263   7.3263
    14.8918  16.5210  18.3343  18.7979  19.4911  19.4918

          k = 0.3975-0.0000 0.1987 (  8538 PWs)   bands (ev):

   -64.5812 -64.5782 -64.5756 -64.5753 -31.3928 -31.3871 -31.3867 -31.3854
   -31.3745 -31.3712 -31.3586 -31.3577 -31.3574 -31.3513 -31.3491 -31.3422
    -8.6490  -8.2230  -7.8068  -7.7551   4.4383   4.6267   4.7670   4.8904
     5.4583   5.5323   6.4966   6.6152   6.6304   6.9740   7.0935   7.4404
    15.2268  16.8021  18.4008  18.6683  18.7437  18.9359

          k = 0.3975-0.0000 0.3975 (  8510 PWs)   bands (ev):

   -64.5794 -64.5773 -64.5773 -64.5762 -31.3927 -31.3927 -31.3926 -31.3846
   -31.3777 -31.3666 -31.3666 -31.3569 -31.3498 -31.3480 -31.3480 -31.3416
    -8.3712  -8.0471  -8.0471  -7.8665   4.4111   4.4111   4.4481   4.8027
     5.2556   5.9543   5.9543   6.5436   7.0048   7.0608   7.0608   7.4163
    16.1264  17.3853  17.3853  17.9023  19.2943  19.2944

          k = 0.3975-0.0000-0.3975 (  8510 PWs)   bands (ev):

   -64.5794 -64.5773 -64.5773 -64.5762 -31.3927 -31.3927 -31.3926 -31.3846
   -31.3777 -31.3666 -31.3666 -31.3569 -31.3498 -31.3480 -31.3480 -31.3416
    -8.3712  -8.0471  -8.0471  -7.8665   4.4111   4.4111   4.4481   4.8027
     5.2556   5.9543   5.9543   6.5436   7.0047   7.0608   7.0608   7.4163
    16.1264  17.3853  17.3853  17.9023  19.2943  19.2944

          k = 0.3975-0.0000-0.1987 (  8538 PWs)   bands (ev):

   -64.5812 -64.5782 -64.5756 -64.5753 -31.3928 -31.3871 -31.3867 -31.3854
   -31.3745 -31.3712 -31.3586 -31.3577 -31.3574 -31.3513 -31.3491 -31.3422
    -8.6490  -8.2230  -7.8068  -7.7551   4.4383   4.6267   4.7670   4.8904
     5.4583   5.5323   6.4966   6.6152   6.6304   6.9740   7.0935   7.4404
    15.2268  16.8021  18.4008  18.6683  18.7437  18.9359

          k = 0.3975 0.1987 0.0000 (  8538 PWs)   bands (ev):

   -64.5812 -64.5782 -64.5756 -64.5753 -31.3928 -31.3871 -31.3867 -31.3854
   -31.3745 -31.3712 -31.3586 -31.3577 -31.3574 -31.3513 -31.3491 -31.3422
    -8.6490  -8.2230  -7.8068  -7.7551   4.4383   4.6267   4.7671   4.8904
     5.4583   5.5323   6.4966   6.6152   6.6304   6.9740   7.0935   7.4404
    15.2268  16.8021  18.4008  18.6683  18.7437  18.9360

          k = 0.3975 0.1987 0.1987 (  8510 PWs)   bands (ev):

   -64.5806 -64.5780 -64.5759 -64.5759 -31.3986 -31.3986 -31.3934 -31.3810
   -31.3703 -31.3703 -31.3549 -31.3549 -31.3543 -31.3518 -31.3452 -31.3434
    -8.5499  -8.1618  -7.8226  -7.8226   4.1794   4.1794   4.3720   4.9948
     5.6612   5.6612   6.6357   6.7458   6.7458   6.9927   7.3072   7.3200
    15.3284  16.7068  17.8797  17.8797  19.1049  19.6302

          k = 0.3975 0.1987 0.3975 (  8499 PWs)   bands (ev):

   -64.5791 -64.5773 -64.5773 -64.5765 -31.4043 -31.4022 -31.4022 -31.3951
   -31.3639 -31.3578 -31.3578 -31.3497 -31.3490 -31.3479 -31.3479 -31.3424
    -8.3011  -8.0207  -8.0207  -7.8896   3.8873   3.9759   3.9759   4.3052
     6.0022   6.4062   6.4062   6.9575   7.0424   7.0810   7.0811   7.3754
    15.8192  16.7807  16.7807  17.1667  19.7274  19.7274

          k = 0.3975 0.1987-0.3975 (  8499 PWs)   bands (ev):

   -64.5791 -64.5773 -64.5773 -64.5765 -31.4043 -31.4022 -31.4022 -31.3951
   -31.3639 -31.3578 -31.3578 -31.3497 -31.3490 -31.3479 -31.3479 -31.3424
    -8.3011  -8.0207  -8.0207  -7.8896   3.8873   3.9759   3.9759   4.3052
     6.0022   6.4062   6.4062   6.9575   7.0424   7.0810   7.0811   7.3754
    15.8192  16.7807  16.7807  17.1667  19.7274  19.9403

          k = 0.3975 0.1987-0.1987 (  8510 PWs)   bands (ev):

   -64.5806 -64.5780 -64.5759 -64.5759 -31.3986 -31.3986 -31.3934 -31.3810
   -31.3703 -31.3703 -31.3549 -31.3549 -31.3543 -31.3518 -31.3452 -31.3434
    -8.5499  -8.1618  -7.8226  -7.8226   4.1794   4.1794   4.3720   4.9948
     5.6612   5.6612   6.6357   6.7458   6.7458   6.9927   7.3072   7.3200
    15.3284  16.7068  17.8797  17.8797  19.1049  19.6302

          k = 0.3975 0.3975 0.0000 (  8510 PWs)   bands (ev):

   -64.5794 -64.5773 -64.5773 -64.5762 -31.3927 -31.3927 -31.3926 -31.3846
   -31.3777 -31.3666 -31.3666 -31.3569 -31.3498 -31.3480 -31.3480 -31.3416
    -8.3712  -8.0471  -8.0471  -7.8665   4.4111   4.4111   4.4481   4.8027
     5.2556   5.9543   5.9543   6.5436   7.0048   7.0608   7.0608   7.4163
    16.1264  17.3853  17.3853  17.9023  19.2943  19.2944

          k = 0.3975 0.3975 0.1987 (  8499 PWs)   bands (ev):

   -64.5791 -64.5773 -64.5773 -64.5765 -31.4043 -31.4022 -31.4022 -31.3951
   -31.3639 -31.3578 -31.3578 -31.3497 -31.3490 -31.3479 -31.3479 -31.3424
    -8.3011  -8.0207  -8.0207  -7.8896   3.8873   3.9759   3.9759   4.3052
     6.0022   6.4062   6.4062   6.9575   7.0424   7.0810   7.0811   7.3754
    15.8192  16.7807  16.7807  17.1667  19.7275  19.9400

          k = 0.3975 0.3975 0.3975 (  8465 PWs)   bands (ev):

   -64.5783 -64.5773 -64.5773 -64.5773 -31.4124 -31.4124 -31.4124 -31.4086
   -31.3495 -31.3495 -31.3495 -31.3469 -31.3469 -31.3469 -31.3444 -31.3444
    -8.1367  -7.9774  -7.9774  -7.9774   3.4956   3.4956   3.4957   3.6703
     6.8888   6.8888   6.8889   7.1425   7.1425   7.1425   7.2698   7.2698
    15.5907  16.1037  16.1037  16.1037  20.1241  20.1241

          k = 0.3975 0.3975-0.3975 (  8465 PWs)   bands (ev):

   -64.5783 -64.5773 -64.5773 -64.5773 -31.4124 -31.4124 -31.4124 -31.4086
   -31.3495 -31.3495 -31.3495 -31.3469 -31.3469 -31.3469 -31.3444 -31.3444
    -8.1367  -7.9774  -7.9774  -7.9774   3.4956   3.4956   3.4957   3.6703
     6.8888   6.8888   6.8889   7.1425   7.1425   7.1425   7.2698   7.2698
    15.5907  16.1037  16.1037  16.1037  20.1241  20.1241

          k = 0.3975 0.3975-0.1987 (  8499 PWs)   bands (ev):

   -64.5791 -64.5773 -64.5773 -64.5765 -31.4043 -31.4022 -31.4022 -31.3951
   -31.3639 -31.3578 -31.3578 -31.3497 -31.3490 -31.3479 -31.3479 -31.3424
    -8.3011  -8.0207  -8.0207  -7.8896   3.8873   3.9759   3.9759   4.3052
     6.0022   6.4062   6.4062   6.9575   7.0424   7.0810   7.0811   7.3754
    15.8192  16.7807  16.7807  17.1667  19.7274  19.9403

          k = 0.3975-0.3975-0.0000 (  8510 PWs)   bands (ev):

   -64.5794 -64.5773 -64.5773 -64.5762 -31.3927 -31.3927 -31.3926 -31.3846
   -31.3777 -31.3666 -31.3666 -31.3569 -31.3498 -31.3480 -31.3480 -31.3416
    -8.3712  -8.0471  -8.0471  -7.8665   4.4111   4.4111   4.4481   4.8027
     5.2556   5.9543   5.9543   6.5436   7.0047   7.0608   7.0608   7.4163
    16.1264  17.3853  17.3853  17.9023  19.2944  19.7079

          k = 0.3975-0.3975 0.1987 (  8499 PWs)   bands (ev):

   -64.5791 -64.5773 -64.5773 -64.5765 -31.4043 -31.4022 -31.4022 -31.3951
   -31.3639 -31.3578 -31.3578 -31.3497 -31.3490 -31.3479 -31.3479 -31.3424
    -8.3011  -8.0207  -8.0207  -7.8896   3.8873   3.9759   3.9759   4.3052
     6.0022   6.4062   6.4062   6.9575   7.0424   7.0810   7.0811   7.3754
    15.8192  16.7807  16.7807  17.1667  19.7275  19.9403

          k = 0.3975-0.3975 0.3975 (  8465 PWs)   bands (ev):

   -64.5783 -64.5773 -64.5773 -64.5773 -31.4124 -31.4124 -31.4124 -31.4086
   -31.3495 -31.3495 -31.3495 -31.3469 -31.3469 -31.3469 -31.3444 -31.3444
    -8.1367  -7.9774  -7.9774  -7.9774   3.4956   3.4956   3.4957   3.6703
     6.8888   6.8888   6.8889   7.1425   7.1425   7.1425   7.2698   7.2698
    15.5907  16.1037  16.1037  16.1037  20.1241  20.1241

          k = 0.3975-0.3975-0.3975 (  8465 PWs)   bands (ev):

   -64.5783 -64.5773 -64.5773 -64.5773 -31.4124 -31.4124 -31.4124 -31.4086
   -31.3495 -31.3495 -31.3495 -31.3469 -31.3469 -31.3469 -31.3444 -31.3444
    -8.1367  -7.9774  -7.9774  -7.9774   3.4956   3.4956   3.4957   3.6703
     6.8888   6.8888   6.8889   7.1425   7.1425   7.1425   7.2698   7.2698
    15.5907  16.1037  16.1037  16.1037  20.1241  20.1241

          k = 0.3975-0.3975-0.1987 (  8499 PWs)   bands (ev):

   -64.5791 -64.5773 -64.5773 -64.5765 -31.4043 -31.4022 -31.4022 -31.3951
   -31.3639 -31.3578 -31.3578 -31.3497 -31.3490 -31.3479 -31.3479 -31.3424
    -8.3011  -8.0207  -8.0207  -7.8896   3.8873   3.9759   3.9759   4.3052
     6.0022   6.4062   6.4062   6.9575   7.0424   7.0810   7.0811   7.3754
    15.8192  16.7807  16.7807  17.1667  19.7274  19.9398

          k = 0.3975-0.1987-0.0000 (  8538 PWs)   bands (ev):

   -64.5812 -64.5782 -64.5756 -64.5753 -31.3928 -31.3871 -31.3867 -31.3854
   -31.3745 -31.3712 -31.3586 -31.3577 -31.3574 -31.3513 -31.3491 -31.3422
    -8.6490  -8.2230  -7.8068  -7.7551   4.4383   4.6267   4.7671   4.8904
     5.4583   5.5323   6.4966   6.6152   6.6304   6.9740   7.0935   7.4404
    15.2268  16.8021  18.4008  18.6683  18.7437  18.9359

          k = 0.3975-0.1987 0.1987 (  8510 PWs)   bands (ev):

   -64.5806 -64.5780 -64.5759 -64.5759 -31.3986 -31.3986 -31.3934 -31.3810
   -31.3703 -31.3703 -31.3549 -31.3549 -31.3543 -31.3518 -31.3452 -31.3434
    -8.5499  -8.1618  -7.8226  -7.8226   4.1794   4.1794   4.3720   4.9948
     5.6612   5.6612   6.6357   6.7458   6.7458   6.9927   7.3072   7.3200
    15.3284  16.7068  17.8797  17.8797  19.1049  19.6302

          k = 0.3975-0.1987 0.3975 (  8499 PWs)   bands (ev):

   -64.5791 -64.5773 -64.5773 -64.5765 -31.4043 -31.4022 -31.4022 -31.3951
   -31.3639 -31.3578 -31.3578 -31.3497 -31.3490 -31.3479 -31.3479 -31.3424
    -8.3011  -8.0207  -8.0207  -7.8896   3.8873   3.9759   3.9759   4.3052
     6.0022   6.4062   6.4062   6.9575   7.0424   7.0810   7.0811   7.3754
    15.8192  16.7807  16.7807  17.1667  19.7274  19.9403

          k = 0.3975-0.1987-0.3975 (  8499 PWs)   bands (ev):

   -64.5791 -64.5773 -64.5773 -64.5765 -31.4043 -31.4022 -31.4022 -31.3951
   -31.3639 -31.3578 -31.3578 -31.3497 -31.3490 -31.3479 -31.3479 -31.3424
    -8.3011  -8.0207  -8.0207  -7.8896   3.8873   3.9759   3.9759   4.3052
     6.0022   6.4062   6.4062   6.9575   7.0424   7.0810   7.0811   7.3754
    15.8192  16.7807  16.7807  17.1667  19.7274  19.7274

          k = 0.3975-0.1987-0.1987 (  8510 PWs)   bands (ev):

   -64.5806 -64.5780 -64.5759 -64.5759 -31.3986 -31.3986 -31.3934 -31.3810
   -31.3703 -31.3703 -31.3549 -31.3549 -31.3543 -31.3518 -31.3452 -31.3434
    -8.5499  -8.1618  -7.8226  -7.8226   4.1794   4.1794   4.3720   4.9948
     5.6612   5.6612   6.6357   6.7458   6.7458   6.9927   7.3072   7.3200
    15.3284  16.7068  17.8797  17.8797  19.1049  19.6302

     the Fermi energy is     9.6375 ev

!    total energy              =    -608.51613892 Ry
     estimated scf accuracy    <       0.00000004 Ry
     smearing contrib. (-TS)   =      -0.00000000 Ry
     internal energy E=F+TS    =    -608.51613892 Ry

     The total energy is F=E-TS. E is the sum of the following terms:
     one-electron contribution =    -300.95126228 Ry
     hartree contribution      =     167.24066689 Ry
     xc contribution           =     -97.90901159 Ry
     ewald contribution        =    -376.79072907 Ry
     DFT-D3 Dispersion         =      -0.10580286 Ry

     convergence has been achieved in   8 iterations

     Forces acting on atoms (cartesian axes, Ry/au):

     atom    1 type  1   force =     0.00000019   -0.00000023   -0.00000005
     atom    2 type  1   force =     0.00000014   -0.00000019   -0.00000001
     atom    3 type  1   force =     0.00000026   -0.00000005    0.00000000
     atom    4 type  1   force =     0.00000020    0.00000028   -0.00000019
     atom    5 type  2   force =    -0.00000072   -0.00000038   -0.00000019
     atom    6 type  2   force =     0.00000036    0.00000049   -0.00000028
     atom    7 type  2   force =    -0.00000079    0.00000048    0.00000065
     atom    8 type  2   force =     0.00000036   -0.00000039    0.00000006

     Total force =     0.000002     Total SCF correction =     0.000007
     SCF correction compared to forces is large: reduce conv_thr to get better values


     Computing stress (Cartesian axis) and pressure

          total   stress  (Ry/bohr**3)                   (kbar)     P=      -16.84
  -0.00011446  -0.00000000  -0.00000000          -16.84       -0.00       -0.00
  -0.00000000  -0.00011445   0.00000000           -0.00      -16.84        0.00
  -0.00000000   0.00000000  -0.00011446           -0.00        0.00      -16.84


     number of scf cycles    =   2
     number of bfgs steps    =   1

     enthalpy old            =    -608.6019683393 Ry
     enthalpy new            =    -608.6034038741 Ry

     CASE: enthalpy_new < enthalpy_old

     new trust radius        =       0.0081443996 bohr
     new conv_thr            =       0.0000000100 Ry

     new unit-cell volume =    516.25783 a.u.^3 (    76.50152 Ang^3 )
     density =      3.49935 g/cm^3

CELL_PARAMETERS (angstrom)
   4.245120116   0.000000018  -0.000000040
   0.000000018   4.245120947   0.000000048
  -0.000000040   0.000000048   4.245120250

ATOMIC_POSITIONS (angstrom)
Mg            0.0000002366        0.0000001843       -0.0000001699
Mg            0.0000001197        2.1225606434        2.1225601350
Mg            2.1225601447        0.0000000017        2.1225600085
Mg            2.1225601645        2.1225600772        0.0000001443
O             2.1225594412        2.1225602786        2.1225597127
O             2.1225603508        0.0000007368       -0.0000001316
O            -0.0000006026        2.1225605579        0.0000005046
O             0.0000003320       -0.0000004558        2.1225603100


     NEW-OLD atomic charge density approx. for the potential
     extrapolated charge   64.34376, renormalised to   64.00000

     total cpu time spent up to now is       94.1 secs

     Self-consistent Calculation

     iteration #  1     ecut=   100.00 Ry     beta= 0.50
     Davidson diagonalization with overlap
     ethr =  1.00E-06,  avg # of iterations =  3.1

     total cpu time spent up to now is      101.3 secs

     total energy              =    -608.51173342 Ry
     estimated scf accuracy    <       0.00236851 Ry

     iteration #  2     ecut=   100.00 Ry     beta= 0.50
     Davidson diagonalization with overlap
     ethr =  3.70E-06,  avg # of iterations =  3.0

     total cpu time spent up to now is      106.6 secs

     total energy              =    -608.51580899 Ry
     estimated scf accuracy    <       0.00346464 Ry

     iteration #  3     ecut=   100.00 Ry     beta= 0.50
     Davidson diagonalization with overlap
     ethr =  3.70E-06,  avg # of iterations =  2.2

     total cpu time spent up to now is      110.2 secs

     total energy              =    -608.51580262 Ry
     estimated scf accuracy    <       0.00075896 Ry

     iteration #  4     ecut=   100.00 Ry     beta= 0.50
     Davidson diagonalization with overlap
     ethr =  1.19E-06,  avg # of iterations =  1.1

     total cpu time spent up to now is      113.4 secs

     total energy              =    -608.51569002 Ry
     estimated scf accuracy    <       0.00025580 Ry

     iteration #  5     ecut=   100.00 Ry     beta= 0.50
     Davidson diagonalization with overlap
     ethr =  4.00E-07,  avg # of iterations =  2.2

     total cpu time spent up to now is      117.7 secs

     total energy              =    -608.51573673 Ry
     estimated scf accuracy    <       0.00000054 Ry

     iteration #  6     ecut=   100.00 Ry     beta= 0.50
     Davidson diagonalization with overlap
     ethr =  8.44E-10,  avg # of iterations =  2.0

     total cpu time spent up to now is      121.9 secs

     total energy              =    -608.51573636 Ry
     estimated scf accuracy    <       0.00000227 Ry

     iteration #  7     ecut=   100.00 Ry     beta= 0.50
     Davidson diagonalization with overlap
     ethr =  8.44E-10,  avg # of iterations =  2.0

     total cpu time spent up to now is      125.4 secs

     total energy              =    -608.51573584 Ry
     estimated scf accuracy    <       0.00000091 Ry

     iteration #  8     ecut=   100.00 Ry     beta= 0.50
     Davidson diagonalization with overlap
     ethr =  8.44E-10,  avg # of iterations =  2.2

     total cpu time spent up to now is      129.8 secs

     End of self-consistent calculation

          k = 0.0000 0.0000 0.0000 (  8409 PWs)   bands (ev):

   -64.6690 -64.6589 -64.6589 -64.6589 -31.4862 -31.4862 -31.4862 -31.4464
   -31.4464 -31.4464 -31.4464 -31.4464 -31.4464 -31.4203 -31.4203 -31.4203
    -9.3035  -7.8289  -7.8289  -7.8289   3.8235   3.8235   3.8235   6.4672
     6.4672   6.4672   6.4672   6.4672   6.4672   7.7692   7.7692   7.7692
    12.3104  16.9624  16.9624  17.5276  17.5276  17.5276

          k = 0.0000-0.0000 0.1984 (  8501 PWs)   bands (ev):

   -64.6681 -64.6598 -64.6589 -64.6589 -31.4824 -31.4824 -31.4806 -31.4502
   -31.4502 -31.4470 -31.4470 -31.4439 -31.4439 -31.4274 -31.4228 -31.4228
    -9.1657  -7.9714  -7.8087  -7.8087   4.0113   4.0113   4.0407   6.1139
     6.1139   6.3207   6.3207   6.5734   6.5734   7.0635   7.6226   7.6226
    13.1366  17.2872  17.3799  17.5112  17.5112  18.1033

          k = 0.0000-0.0000 0.3968 (  8542 PWs)   bands (ev):

   -64.6655 -64.6624 -64.6588 -64.6588 -31.4724 -31.4724 -31.4653 -31.4601
   -31.4601 -31.4480 -31.4480 -31.4450 -31.4373 -31.4373 -31.4293 -31.4293
    -8.8011  -8.3442  -7.7759  -7.7758   4.5480   4.5480   4.7084   5.3311
     5.3311   5.7938   6.0949   6.0949   6.8667   6.8667   7.2649   7.2649
    14.7745  16.4004  18.2570  18.7043  18.7043  19.3634

          k =-0.0000 0.1984-0.0000 (  8501 PWs)   bands (ev):

   -64.6681 -64.6598 -64.6589 -64.6589 -31.4824 -31.4824 -31.4806 -31.4502
   -31.4502 -31.4470 -31.4470 -31.4439 -31.4439 -31.4274 -31.4228 -31.4228
[...]
   -31.4469 -31.4410 -31.4410 -31.4331 -31.4324 -31.4313 -31.4313 -31.4259
    -8.3496  -8.0723  -8.0723  -7.9426   3.8429   3.9302   3.9302   4.2564
     5.9487   6.3507   6.3507   6.8990   6.9840   7.0224   7.0224   7.3153
    15.7097  16.6744  16.6744  17.0637  19.6159  19.8223

          k = 0.1984 0.3968-0.3968 (  8727 PWs)   bands (ev):

   -64.6632 -64.6615 -64.6615 -64.6607 -31.4864 -31.4844 -31.4844 -31.4775
   -31.4469 -31.4410 -31.4410 -31.4331 -31.4324 -31.4313 -31.4313 -31.4259
    -8.3496  -8.0723  -8.0723  -7.9426   3.8429   3.9302   3.9302   4.2564
     5.9487   6.3507   6.3507   6.8990   6.9840   7.0224   7.0224   7.3153
    15.7097  16.6744  16.6744  17.0637  19.6159  19.8223

          k = 0.1984 0.3968-0.1984 (  8712 PWs)   bands (ev):

   -64.6646 -64.6621 -64.6600 -64.6600 -31.4809 -31.4809 -31.4758 -31.4636
   -31.4532 -31.4532 -31.4381 -31.4381 -31.4375 -31.4351 -31.4286 -31.4269
    -8.5957  -8.2116  -7.8762  -7.8762   4.1338   4.1338   4.3233   4.9414
     5.6094   5.6094   6.5790   6.6884   6.6884   6.9336   7.2469   7.2592
    15.2142  16.5941  17.7772  17.7772  19.0089  19.5150

          k = 0.1984-0.3968 0.0000 (  8745 PWs)   bands (ev):

   -64.6652 -64.6623 -64.6598 -64.6595 -31.4753 -31.4696 -31.4693 -31.4679
   -31.4574 -31.4540 -31.4418 -31.4409 -31.4406 -31.4346 -31.4325 -31.4257
    -8.6936  -8.2720  -7.8604  -7.8093   4.3914   4.5765   4.7197   4.8416
     5.4021   5.4811   6.4402   6.5583   6.5731   6.9150   7.0337   7.3791
    15.1096  16.6821  18.3024  18.5849  18.6264  18.8416

          k = 0.1984-0.3968 0.1984 (  8712 PWs)   bands (ev):

   -64.6646 -64.6621 -64.6600 -64.6600 -31.4809 -31.4809 -31.4758 -31.4636
   -31.4532 -31.4532 -31.4381 -31.4381 -31.4375 -31.4351 -31.4286 -31.4269
    -8.5957  -8.2116  -7.8762  -7.8762   4.1338   4.1338   4.3233   4.9414
     5.6094   5.6094   6.5790   6.6884   6.6884   6.9336   7.2469   7.2592
    15.2142  16.5941  17.7772  17.7772  19.0089  19.5150

          k = 0.1984-0.3968 0.3968 (  8727 PWs)   bands (ev):

   -64.6632 -64.6615 -64.6615 -64.6607 -31.4864 -31.4844 -31.4844 -31.4775
   -31.4469 -31.4410 -31.4410 -31.4331 -31.4324 -31.4313 -31.4313 -31.4259
    -8.3496  -8.0723  -8.0723  -7.9426   3.8429   3.9302   3.9302   4.2564
     5.9487   6.3507   6.3507   6.8990   6.9840   7.0224   7.0224   7.3153
    15.7097  16.6744  16.6744  17.0637  19.6159  19.8222

          k = 0.1984-0.3968-0.3968 (  8727 PWs)   bands (ev):

   -64.6632 -64.6615 -64.6615 -64.6607 -31.4864 -31.4844 -31.4844 -31.4775
   -31.4469 -31.4410 -31.4410 -31.4331 -31.4324 -31.4313 -31.4313 -31.4259
    -8.3496  -8.0723  -8.0723  -7.9426   3.8429   3.9302   3.9302   4.2564
     5.9487   6.3507   6.3507   6.8990   6.9840   7.0224   7.0224   7.3153
    15.7097  16.6744  16.6744  17.0637  19.6159  19.8222

          k = 0.1984-0.3968-0.1984 (  8712 PWs)   bands (ev):

   -64.6646 -64.6621 -64.6600 -64.6600 -31.4809 -31.4809 -31.4758 -31.4636
   -31.4532 -31.4532 -31.4381 -31.4381 -31.4375 -31.4351 -31.4286 -31.4269
    -8.5957  -8.2116  -7.8762  -7.8762   4.1338   4.1338   4.3233   4.9414
     5.6094   5.6094   6.5790   6.6884   6.6884   6.9336   7.2469   7.2592
    15.2142  16.5941  17.7772  17.7772  19.0089  19.5150

          k = 0.1984-0.1984 0.0000 (  8698 PWs)   bands (ev):

   -64.6675 -64.6600 -64.6600 -64.6593 -31.4795 -31.4795 -31.4789 -31.4584
   -31.4478 -31.4478 -31.4435 -31.4435 -31.4424 -31.4375 -31.4256 -31.4214
    -9.0355  -7.9354  -7.9354  -7.8029   4.1317   4.1317   4.1952   5.5071
     6.2357   6.2357   6.4261   6.4954   6.4954   6.6007   7.4505   7.6611
    13.7294  17.6096  17.7848  17.7848  17.8385  17.8385

          k = 0.1984-0.1984 0.1984 (  8706 PWs)   bands (ev):

   -64.6667 -64.6600 -64.6600 -64.6600 -31.4799 -31.4799 -31.4799 -31.4509
   -31.4509 -31.4509 -31.4475 -31.4404 -31.4404 -31.4404 -31.4234 -31.4234
    -8.9133  -7.9129  -7.9129  -7.9129   4.1445   4.1445   4.1445   5.8405
     5.8658   5.8658   5.8658   6.6897   6.6897   6.6897   7.5455   7.5455
    14.1293  17.5233  17.5233  17.5233  18.7099  18.7099

          k = 0.1984-0.1984 0.3968 (  8712 PWs)   bands (ev):

   -64.6646 -64.6621 -64.6600 -64.6600 -31.4809 -31.4809 -31.4758 -31.4636
   -31.4532 -31.4532 -31.4381 -31.4381 -31.4375 -31.4351 -31.4286 -31.4269
    -8.5957  -8.2116  -7.8762  -7.8762   4.1338   4.1338   4.3233   4.9414
     5.6094   5.6094   6.5790   6.6884   6.6884   6.9336   7.2469   7.2592
    15.2142  16.5941  17.7772  17.7772  19.0089  19.5150

          k = 0.1984-0.1984-0.3968 (  8712 PWs)   bands (ev):

   -64.6646 -64.6621 -64.6600 -64.6600 -31.4809 -31.4809 -31.4758 -31.4636
   -31.4532 -31.4532 -31.4381 -31.4381 -31.4375 -31.4351 -31.4286 -31.4269
    -8.5957  -8.2116  -7.8762  -7.8762   4.1338   4.1338   4.3233   4.9414
     5.6094   5.6094   6.5790   6.6884   6.6884   6.9336   7.2469   7.2592
    15.2142  16.5941  17.7772  17.7772  19.0089  19.5150

          k = 0.1984-0.1984-0.1984 (  8706 PWs)   bands (ev):

   -64.6667 -64.6600 -64.6600 -64.6600 -31.4799 -31.4799 -31.4799 -31.4509
   -31.4509 -31.4509 -31.4475 -31.4404 -31.4404 -31.4404 -31.4234 -31.4234
    -8.9133  -7.9129  -7.9129  -7.9129   4.1445   4.1445   4.1445   5.8405
     5.8658   5.8658   5.8658   6.6897   6.6897   6.6897   7.5455   7.5455
    14.1293  17.5233  17.5233  17.5233  18.7099  18.7099

          k = 0.3968-0.0000 0.0000 (  8734 PWs)   bands (ev):

   -64.6658 -64.6627 -64.6592 -64.6592 -31.4726 -31.4726 -31.4655 -31.4603
   -31.4603 -31.4482 -31.4482 -31.4452 -31.4376 -31.4376 -31.4295 -31.4295
    -8.8012  -8.3443  -7.7759  -7.7759   4.5479   4.5479   4.7083   5.3310
     5.3310   5.7938   6.0948   6.0948   6.8666   6.8666   7.2649   7.2649
    14.7744  16.4003  18.2569  18.7042  18.7042  19.7831

          k = 0.3968-0.0000 0.1984 (  8745 PWs)   bands (ev):

   -64.6652 -64.6623 -64.6598 -64.6595 -31.4753 -31.4696 -31.4693 -31.4679
   -31.4574 -31.4540 -31.4418 -31.4409 -31.4406 -31.4346 -31.4325 -31.4257
    -8.6936  -8.2720  -7.8604  -7.8093   4.3914   4.5765   4.7197   4.8416
     5.4021   5.4811   6.4402   6.5583   6.5731   6.9150   7.0337   7.3791
    15.1096  16.6821  18.3024  18.5850  18.6264  18.8416

          k = 0.3968-0.0000 0.3968 (  8720 PWs)   bands (ev):

   -64.6635 -64.6615 -64.6615 -64.6604 -31.4751 -31.4751 -31.4750 -31.4671
   -31.4605 -31.4496 -31.4496 -31.4401 -31.4332 -31.4314 -31.4314 -31.4252
    -8.4188  -8.0982  -8.0982  -7.9197   4.3626   4.3626   4.4005   4.7506
     5.2060   5.9011   5.9011   6.4871   6.9465   7.0022   7.0022   7.3559
    16.0101  17.2695  17.2695  17.7955  19.1986  19.1986

          k = 0.3968 0.0000-0.3968 (  8720 PWs)   bands (ev):

   -64.6635 -64.6615 -64.6615 -64.6604 -31.4751 -31.4751 -31.4750 -31.4671
   -31.4605 -31.4496 -31.4496 -31.4401 -31.4332 -31.4314 -31.4314 -31.4252
    -8.4188  -8.0982  -8.0982  -7.9197   4.3626   4.3626   4.4005   4.7506
     5.2060   5.9011   5.9011   6.4871   6.9465   7.0022   7.0022   7.3559
    16.0101  17.2695  17.2695  17.7955  19.1986  19.1986

          k = 0.3968 0.0000-0.1984 (  8745 PWs)   bands (ev):

   -64.6652 -64.6623 -64.6598 -64.6595 -31.4753 -31.4696 -31.4693 -31.4679
   -31.4574 -31.4540 -31.4418 -31.4409 -31.4406 -31.4346 -31.4325 -31.4257
    -8.6936  -8.2720  -7.8604  -7.8093   4.3914   4.5765   4.7197   4.8416
     5.4021   5.4811   6.4402   6.5583   6.5731   6.9150   7.0337   7.3791
    15.1096  16.6821  18.3024  18.5849  18.6264  18.8416

          k = 0.3968 0.1984 0.0000 (  8745 PWs)   bands (ev):

   -64.6652 -64.6623 -64.6598 -64.6595 -31.4753 -31.4696 -31.4693 -31.4679
   -31.4574 -31.4540 -31.4418 -31.4409 -31.4406 -31.4346 -31.4325 -31.4257
    -8.6936  -8.2720  -7.8604  -7.8093   4.3914   4.5765   4.7197   4.8416
     5.4021   5.4811   6.4402   6.5583   6.5731   6.9150   7.0337   7.3791
    15.1096  16.6821  18.3024  18.5849  18.6264  18.8416

          k = 0.3968 0.1984 0.1984 (  8712 PWs)   bands (ev):

   -64.6646 -64.6621 -64.6600 -64.6600 -31.4809 -31.4809 -31.4758 -31.4636
   -31.4532 -31.4532 -31.4381 -31.4381 -31.4375 -31.4351 -31.4286 -31.4269
    -8.5957  -8.2116  -7.8762  -7.8762   4.1338   4.1338   4.3233   4.9414
     5.6094   5.6094   6.5790   6.6884   6.6884   6.9336   7.2469   7.2592
    15.2142  16.5941  17.7772  17.7772  19.0089  19.5150

          k = 0.3968 0.1984 0.3968 (  8727 PWs)   bands (ev):

   -64.6632 -64.6615 -64.6615 -64.6607 -31.4864 -31.4844 -31.4844 -31.4775
   -31.4469 -31.4410 -31.4410 -31.4331 -31.4324 -31.4313 -31.4313 -31.4259
    -8.3496  -8.0723  -8.0723  -7.9426   3.8429   3.9302   3.9302   4.2564
     5.9487   6.3507   6.3507   6.8990   6.9840   7.0224   7.0224   7.3153
    15.7097  16.6744  16.6744  17.0637  19.6159  19.8223

          k = 0.3968 0.1984-0.3968 (  8727 PWs)   bands (ev):

   -64.6632 -64.6615 -64.6615 -64.6607 -31.4864 -31.4844 -31.4844 -31.4775
   -31.4469 -31.4410 -31.4410 -31.4331 -31.4324 -31.4313 -31.4313 -31.4259
    -8.3496  -8.0723  -8.0723  -7.9426   3.8429   3.9302   3.9302   4.2564
     5.9487   6.3507   6.3507   6.8990   6.9840   7.0224   7.0224   7.3153
    15.7097  16.6744  16.6744  17.0637  19.6159  19.8222

          k = 0.3968 0.1984-0.1984 (  8712 PWs)   bands (ev):

   -64.6646 -64.6621 -64.6600 -64.6600 -31.4809 -31.4809 -31.4758 -31.4636
   -31.4532 -31.4532 -31.4381 -31.4381 -31.4375 -31.4351 -31.4286 -31.4269
    -8.5957  -8.2116  -7.8762  -7.8762   4.1338   4.1338   4.3233   4.9414
     5.6094   5.6094   6.5790   6.6884   6.6884   6.9336   7.2469   7.2592
    15.2142  16.5941  17.7772  17.7772  19.0089  19.5150

          k = 0.3968 0.3968-0.0000 (  8720 PWs)   bands (ev):

   -64.6635 -64.6615 -64.6615 -64.6604 -31.4751 -31.4751 -31.4750 -31.4671
   -31.4605 -31.4496 -31.4496 -31.4401 -31.4332 -31.4314 -31.4314 -31.4252
    -8.4188  -8.0982  -8.0982  -7.9197   4.3626   4.3626   4.4005   4.7506
     5.2060   5.9011   5.9011   6.4871   6.9465   7.0022   7.0022   7.3559
    16.0101  17.2695  17.2695  17.7955  19.1986  19.6031

          k = 0.3968 0.3968 0.1984 (  8727 PWs)   bands (ev):

   -64.6632 -64.6615 -64.6615 -64.6607 -31.4864 -31.4844 -31.4844 -31.4775
   -31.4469 -31.4410 -31.4410 -31.4331 -31.4324 -31.4313 -31.4313 -31.4259
    -8.3496  -8.0723  -8.0723  -7.9426   3.8429   3.9302   3.9302   4.2564
     5.9487   6.3507   6.3507   6.8990   6.9840   7.0224   7.0224   7.3153
    15.7097  16.6744  16.6744  17.0637  19.6159  19.8222

          k = 0.3968 0.3968 0.3968 (  8711 PWs)   bands (ev):

   -64.6624 -64.6614 -64.6614 -64.6614 -31.4943 -31.4943 -31.4943 -31.4906
   -31.4329 -31.4329 -31.4329 -31.4304 -31.4304 -31.4304 -31.4279 -31.4279
    -8.1872  -8.0297  -8.0297  -8.0297   3.4529   3.4529   3.4529   3.6259
     6.8313   6.8313   6.8313   7.0837   7.0837   7.0837   7.2103   7.2103
    15.4885  16.0032  16.0032  16.0032  20.0010  20.0010

          k = 0.3968 0.3968-0.3968 (  8711 PWs)   bands (ev):

   -64.6624 -64.6614 -64.6614 -64.6614 -31.4943 -31.4943 -31.4943 -31.4906
   -31.4329 -31.4329 -31.4329 -31.4304 -31.4304 -31.4304 -31.4279 -31.4279
    -8.1872  -8.0297  -8.0297  -8.0297   3.4529   3.4529   3.4529   3.6259
     6.8313   6.8313   6.8313   7.0837   7.0837   7.0837   7.2103   7.2103
    15.4885  16.0032  16.0032  16.0032  20.0010  20.0010

          k = 0.3968 0.3968-0.1984 (  8727 PWs)   bands (ev):

   -64.6632 -64.6615 -64.6615 -64.6607 -31.4864 -31.4844 -31.4844 -31.4775
   -31.4469 -31.4410 -31.4410 -31.4331 -31.4324 -31.4313 -31.4313 -31.4259
    -8.3496  -8.0723  -8.0723  -7.9426   3.8429   3.9302   3.9302   4.2564
     5.9487   6.3507   6.3507   6.8990   6.9840   7.0224   7.0224   7.3153
    15.7097  16.6744  16.6744  17.0637  19.6159  19.8222

          k = 0.3968-0.3968 0.0000 (  8720 PWs)   bands (ev):

   -64.6635 -64.6615 -64.6615 -64.6604 -31.4751 -31.4751 -31.4750 -31.4671
   -31.4605 -31.4496 -31.4496 -31.4401 -31.4332 -31.4314 -31.4314 -31.4252
    -8.4188  -8.0982  -8.0982  -7.9197   4.3626   4.3626   4.4005   4.7506
     5.2060   5.9011   5.9011   6.4871   6.9465   7.0022   7.0022   7.3559
    16.0101  17.2695  17.2695  17.7955  19.1986  19.1986

          k = 0.3968-0.3968 0.1984 (  8727 PWs)   bands (ev):

   -64.6632 -64.6615 -64.6615 -64.6607 -31.4864 -31.4844 -31.4844 -31.4775
   -31.4469 -31.4410 -31.4410 -31.4331 -31.4324 -31.4313 -31.4313 -31.4259
    -8.3496  -8.0723  -8.0723  -7.9426   3.8429   3.9302   3.9302   4.2564
     5.9487   6.3507   6.3507   6.8990   6.9840   7.0224   7.0224   7.3153
    15.7097  16.6744  16.6744  17.0637  19.6159  19.8220

          k = 0.3968-0.3968 0.3968 (  8711 PWs)   bands (ev):

   -64.6624 -64.6614 -64.6614 -64.6614 -31.4943 -31.4943 -31.4943 -31.4906
   -31.4329 -31.4329 -31.4329 -31.4304 -31.4304 -31.4304 -31.4279 -31.4279
    -8.1872  -8.0297  -8.0297  -8.0297   3.4529   3.4529   3.4529   3.6259
     6.8313   6.8313   6.8313   7.0837   7.0837   7.0837   7.2103   7.2103
    15.4885  16.0032  16.0032  16.0032  20.0010  20.0010

          k = 0.3968-0.3968-0.3968 (  8711 PWs)   bands (ev):

   -64.6624 -64.6614 -64.6614 -64.6614 -31.4943 -31.4943 -31.4943 -31.4906
   -31.4329 -31.4329 -31.4329 -31.4304 -31.4304 -31.4304 -31.4279 -31.4279
    -8.1872  -8.0297  -8.0297  -8.0297   3.4529   3.4529   3.4529   3.6259
     6.8313   6.8313   6.8313   7.0837   7.0837   7.0837   7.2103   7.2103
    15.4885  16.0032  16.0032  16.0032  20.0010  20.0010

          k = 0.3968-0.3968-0.1984 (  8727 PWs)   bands (ev):

   -64.6632 -64.6615 -64.6615 -64.6607 -31.4864 -31.4844 -31.4844 -31.4775
   -31.4469 -31.4410 -31.4410 -31.4331 -31.4324 -31.4313 -31.4313 -31.4259
    -8.3496  -8.0723  -8.0723  -7.9426   3.8429   3.9302   3.9302   4.2564
     5.9487   6.3507   6.3507   6.8990   6.9840   7.0224   7.0224   7.3153
    15.7097  16.6744  16.6744  17.0637  19.6159  19.8223

          k = 0.3968-0.1984 0.0000 (  8745 PWs)   bands (ev):

   -64.6652 -64.6623 -64.6598 -64.6595 -31.4753 -31.4696 -31.4693 -31.4679
   -31.4574 -31.4540 -31.4418 -31.4409 -31.4406 -31.4346 -31.4325 -31.4257
    -8.6936  -8.2720  -7.8604  -7.8093   4.3914   4.5765   4.7197   4.8416
     5.4021   5.4811   6.4402   6.5583   6.5731   6.9150   7.0337   7.3791
    15.1096  16.6821  18.3024  18.5849  18.6264  18.8416

          k = 0.3968-0.1984 0.1984 (  8712 PWs)   bands (ev):

   -64.6646 -64.6621 -64.6600 -64.6600 -31.4809 -31.4809 -31.4758 -31.4636
   -31.4532 -31.4532 -31.4381 -31.4381 -31.4375 -31.4351 -31.4286 -31.4269
    -8.5957  -8.2116  -7.8762  -7.8762   4.1338   4.1338   4.3233   4.9414
     5.6094   5.6094   6.5790   6.6884   6.6884   6.9336   7.2469   7.2592
    15.2142  16.5941  17.7772  17.7772  19.0089  19.5150

          k = 0.3968-0.1984 0.3968 (  8727 PWs)   bands (ev):

   -64.6632 -64.6615 -64.6615 -64.6607 -31.4864 -31.4844 -31.4844 -31.4775
   -31.4469 -31.4410 -31.4410 -31.4331 -31.4324 -31.4313 -31.4313 -31.4259
    -8.3496  -8.0723  -8.0723  -7.9426   3.8429   3.9302   3.9302   4.2564
     5.9487   6.3507   6.3507   6.8990   6.9840   7.0224   7.0224   7.3153
    15.7097  16.6744  16.6744  17.0637  19.6159  19.8223

          k = 0.3968-0.1984-0.3968 (  8727 PWs)   bands (ev):

   -64.6632 -64.6615 -64.6615 -64.6607 -31.4864 -31.4844 -31.4844 -31.4775
   -31.4469 -31.4410 -31.4410 -31.4331 -31.4324 -31.4313 -31.4313 -31.4259
    -8.3496  -8.0723  -8.0723  -7.9426   3.8429   3.9302   3.9302   4.2564
     5.9487   6.3507   6.3507   6.8990   6.9840   7.0224   7.0224   7.3153
    15.7097  16.6744  16.6744  17.0637  19.6159  19.8223

          k = 0.3968-0.1984-0.1984 (  8712 PWs)   bands (ev):

   -64.6646 -64.6621 -64.6600 -64.6600 -31.4809 -31.4809 -31.4758 -31.4636
   -31.4532 -31.4532 -31.4381 -31.4381 -31.4375 -31.4351 -31.4286 -31.4269
    -8.5957  -8.2116  -7.8762  -7.8762   4.1338   4.1338   4.3233   4.9414
     5.6094   5.6094   6.5790   6.6884   6.6884   6.9336   7.2469   7.2592
    15.2142  16.5941  17.7772  17.7772  19.0089  19.5150

     the Fermi energy is     9.5193 ev

!    total energy              =    -608.51574973 Ry
     estimated scf accuracy    <          4.4E-10 Ry
     smearing contrib. (-TS)   =      -0.00000000 Ry
     internal energy E=F+TS    =    -608.51574973 Ry

     The total energy is F=E-TS. E is the sum of the following terms:
     one-electron contribution =    -301.99547089 Ry
     hartree contribution      =     167.58597432 Ry
     xc contribution           =     -97.88621539 Ry
     ewald contribution        =    -376.11487191 Ry
     DFT-D3 Dispersion         =      -0.10516586 Ry

     convergence has been achieved in  10 iterations

     Forces acting on atoms (cartesian axes, Ry/au):

     atom    1 type  1   force =    -0.00000010   -0.00000003    0.00000008
     atom    2 type  1   force =    -0.00000005   -0.00000004    0.00000006
     atom    3 type  1   force =     0.00000005   -0.00000007   -0.00000003
     atom    4 type  1   force =    -0.00000013    0.00000017   -0.00000007
     atom    5 type  2   force =     0.00000023    0.00000011    0.00000022
     atom    6 type  2   force =    -0.00000010   -0.00000031    0.00000000
     atom    7 type  2   force =     0.00000024    0.00000000   -0.00000022
     atom    8 type  2   force =    -0.00000015    0.00000017   -0.00000004

     Total force =     0.000001     Total SCF correction =     0.000000
     SCF correction compared to forces is large: reduce conv_thr to get better values


     Computing stress (Cartesian axis) and pressure

          total   stress  (Ry/bohr**3)                   (kbar)     P=      -25.29
  -0.00017193  -0.00000000   0.00000000          -25.29       -0.00        0.00
  -0.00000000  -0.00017194  -0.00000000           -0.00      -25.29       -0.00
   0.00000000  -0.00000000  -0.00017194            0.00       -0.00      -25.29

 
     init_run     :      3.02s CPU      3.10s WALL (       2 calls)
     electrons    :    153.24s CPU    156.62s WALL (       4 calls)
     update_pot   :      0.85s CPU      0.86s WALL (       2 calls)
     forces       :     16.31s CPU     16.36s WALL (       4 calls)
     stress       :     19.16s CPU     19.22s WALL (       4 calls)

     Called by init_run:
     wfcinit      :      2.35s CPU      2.41s WALL (       2 calls)
     potinit      :      0.26s CPU      0.26s WALL (       2 calls)
     hinit0       :      0.38s CPU      0.39s WALL (       2 calls)

     Called by electrons:
     c_bands      :    122.64s CPU    125.51s WALL (      34 calls)
     sum_band     :     18.75s CPU     19.22s WALL (      34 calls)
     v_of_rho     :      0.30s CPU      0.31s WALL (      38 calls)
     mix_rho      :      0.04s CPU      0.05s WALL (      34 calls)

     Called by c_bands:
     init_us_2    :      1.43s CPU      1.51s WALL (    4914 calls)
     cegterg      :    118.20s CPU    120.73s WALL (    2142 calls)

     Called by *egterg:
     cdiaghg      :     14.39s CPU     14.49s WALL (    8183 calls)
     h_psi        :     96.99s CPU     99.39s WALL (    8435 calls)
     g_psi        :      0.37s CPU      0.37s WALL (    6167 calls)

     Called by h_psi:
     h_psi:calbec :      2.92s CPU      2.99s WALL (    8435 calls)
     vloc_psi     :     91.17s CPU     93.45s WALL (    8435 calls)
     add_vuspsi   :      2.52s CPU      2.57s WALL (    8435 calls)

     General routines
     calbec       :      3.51s CPU      3.60s WALL (    9695 calls)
     fft          :      0.26s CPU      0.27s WALL (     478 calls)
     ffts         :      0.02s CPU      0.02s WALL (      34 calls)
     fftw         :    102.69s CPU    105.24s WALL (  518396 calls)
 
     Parallel routines
     fft_scatt_xy :     13.92s CPU     14.27s WALL (  518908 calls)
     fft_scatt_yz :     52.54s CPU     53.85s WALL (  518908 calls)
 
     PWSCF        :   3m12.75s CPU   3m16.34s WALL

 
   This run was terminated on:  13:37:35   4Feb2024            

=------------------------------------------------------------------------------=
   JOB DONE.
=------------------------------------------------------------------------------=
