# total energy = -117579.102769 eV

CRYSTAL
PRIMVEC
		10.58799967		0.00000000		0.00000000
		0.00000000		14.09700041		1.69164471
		-2.45393833		1.17234568		9.76951553
PRIMECORD
   156 1
Si		8.18330189		0.10088458		0.72608478		-0.00016710		-0.00016438		 0.00007283
Si		-0.04923632		15.16845727		10.73507546		 0.00016710		 0.00016438		-0.00007283
Si		1.17773073		7.56169737		5.00784432		 0.00008536		-0.00024624		-0.00027262
Si		6.95633484		7.70764342		6.45331592		-0.00008536		 0.00024624		 0.00027262
Si		3.61492732		3.46302235		6.90135560		 0.00030917		 0.00008248		 0.00006368
Si		4.51914037		11.80632056		4.55980465		-0.00030917		-0.00008248		-0.00006368
Si		3.29217333		10.69070115		9.24034954		 0.00021980		 0.00032865		-0.00021592
Si		4.84189437		4.57863964		2.22081070		-0.00021980		-0.00032865		 0.00021592
Si		1.21183891		2.26947103		4.38144344		 0.00011188		-0.00003692		 0.00021776
Si		6.92222666		12.99987188		7.07971680		-0.00011188		 0.00003692		-0.00021776
Si		8.14919371		8.90354633		1.77373770		 0.00015722		-0.00044890		 0.00022844
Si		-0.01512708		6.36579446		9.68742254		-0.00015722		 0.00044890		-0.00022844
Si		6.86524205		2.41033483		5.80656596		-0.00006404		-0.00007359		 0.00032404
Si		1.26882459		12.85900702		5.65459534		 0.00006404		 0.00007359		-0.00032404
Si		0.04185754		9.87384439		10.11079535		-0.00003702		-0.00007938		 0.00019425
Si		8.09220909		5.39549746		1.35036489		 0.00003702		 0.00007938		-0.00019425
Mg		4.06703279		0.58617072		4.88475988		0.00000000		0.00000000		0.00000000
Mg		5.29399984		7.04850020		0.84582024		0.00000000		0.00000000		0.00000000
Mg		4.39572559		2.87787866		3.77696818		 0.00031100		-0.00019432		 0.00014734
Mg		3.73834104		12.39146319		7.68419312		-0.00031100		 0.00019432		-0.00014734
Mg		4.96530809		9.67692771		2.54402844		 0.00006277		-0.00028218		-0.00045375
Mg		3.16875854		5.59241520		8.91713180		-0.00006277		 0.00028218		 0.00045375
Mg		5.29399984		0.00000000		0.00000000		0.00000000		0.00000000		0.00000000
Mg		4.06703279		7.63467092		5.73058012		0.00000000		0.00000000		0.00000000
Mg		6.19165257		0.37876239		2.86804876		 0.00005525		 0.00050961		 0.00005067
Mg		1.94241301		14.89058051		8.59311042		-0.00005525		-0.00050961		-0.00005067
Mg		3.16938006		7.32611226		2.87095517		 0.00000542		 0.00032858		-0.00044584
Mg		4.96468552		7.94322959		8.59020507		-0.00000542		-0.00032858		 0.00044584
Mg		0.42170944		0.18359909		1.48946685		-0.00003447		 0.00001367		 0.00026162
Mg		7.71235825		15.08574382		9.97169339		 0.00003447		-0.00001367		-0.00026162
Mg		8.93932424		7.46093985		4.24229700		-0.00018047		-0.00020217		 0.00009322
Mg		-0.80525761		7.80840200		7.21886324		 0.00018047		 0.00020217		-0.00009322
Mg		-0.86838750		0.74904274		6.20150258		-0.00006657		 0.00024820		 0.00040931
Mg		9.00245519		14.52029805		5.25965766		 0.00006657		-0.00024820		-0.00040931
Mg		7.77548814		8.06783764		9.29978316		-0.00008594		 0.00021958		 0.00073313
Mg		0.35857849		7.20150421		2.16137814		 0.00008594		-0.00021958		-0.00073313
Mg		3.19404057		0.29162951		2.10952870		-0.00037716		-0.00019467		 0.00025724
Mg		4.94002607		14.97771234		9.35163154		 0.00037716		 0.00019467		-0.00025724
Mg		6.16699311		7.42113850		3.63042286		 0.00002081		 0.00020131		-0.00013993
Mg		1.96707352		7.84820335		7.83073738		-0.00002081		-0.00020131		 0.00013993
Mg		6.57114024		2.54055664		1.49508802		-0.00020942		-0.00003112		-0.00013222
Mg		1.56292640		12.72878415		9.96607222		 0.00020942		 0.00003112		 0.00013222
Mg		2.78989239		9.88540119		4.81044695		 0.00030230		-0.00031005		-0.00010114
Mg		5.34417319		5.38393960		6.65071329		-0.00030230		 0.00031005		 0.00010114
Mg		-1.63791484		3.57603548		9.76630525		-0.00012833		 0.00069888		 0.00056890
Mg		9.77198042		11.69330531		1.69485393		 0.00012833		-0.00069888		-0.00056890
Mg		8.54501337		10.10938609		6.31920408		-0.00019551		 0.00037452		-0.00015305
Mg		-0.41094780		5.15995682		5.14195722		 0.00019551		-0.00037452		 0.00015305
Mg		0.46893509		3.37955503		7.64614514		 0.00036833		-0.00004003		-0.00015843
Mg		7.66513154		11.88978788		3.81501616		-0.00036833		 0.00004003		 0.00015843
Mg		6.43816449		10.42343569		8.45347270		 0.00014010		 0.00005389		 0.00017407
Mg		1.69590108		4.84590616		3.00768648		-0.00014010		-0.00005389		-0.00017407
Mg		6.00405545		3.52916770		9.03996424		-0.00006726		-0.00010085		-0.00022959
Mg		2.13001119		11.74017415		2.42119706		 0.00006726		 0.00010085		 0.00022959
Mg		0.90304414		10.23801652		7.05535805		 0.00020325		 0.00008981		-0.00003346
Mg		7.23102249		5.03132533		4.40580325		-0.00020325		-0.00008981		 0.00003346
Mg		3.60529224		2.42920371		0.72576503		 0.00030030		-0.00002285		-0.00045384
Mg		4.52877334		12.84013814		10.73539522		-0.00030030		 0.00002285		 0.00045384
Mg		5.75574038		9.95813016		5.57513452		-0.00016739		 0.00018686		-0.00034985
Mg		2.37832519		5.31121275		5.88602572		 0.00016739		-0.00018686		 0.00034985
Mg		9.40458318		2.73530278		2.24264209		-0.00018319		 0.00007378		-0.00018820
Mg		-1.27051655		12.53404013		9.21851921		 0.00018319		-0.00007378		 0.00018820
Mg		-0.04354950		9.90380419		4.08847031		-0.00028904		-0.00000243		 0.00012543
Mg		8.17761719		5.36553871		7.37268993		 0.00028904		 0.00000243		-0.00012543
O		3.63390525		1.84509447		6.66888230		 0.00020463		 0.00017652		-0.00003265
O		4.50016138		13.42424632		4.79227794		-0.00020463		-0.00017652		 0.00003265
O		3.27319539		9.08210765		9.08564087		-0.00009145		 0.00022556		 0.00009130
O		4.86087230		6.18723525		2.37552043		 0.00009145		-0.00022556		-0.00009130
O		5.72267194		1.76583059		4.65368314		-0.00040914		-0.00042970		 0.00032934
O		2.41139469		13.50351126		6.80747710		 0.00040914		 0.00042970		-0.00032934
O		3.63836068		8.31889923		1.37090349		-0.00025658		-0.00021432		-0.00015061
O		4.49570490		6.95044368		10.09025675		 0.00025658		 0.00021432		 0.00015061
O		6.88739955		4.05456330		6.00002036		 0.00019349		-0.00004799		 0.00047745
O		1.24666708		11.21477855		5.46113988		-0.00019349		 0.00004799		-0.00047745
O		0.01970003		11.51901095		10.31206687		 0.00041428		-0.00013839		-0.00036637
O		8.11436554		3.75033195		1.14909443		-0.00041428		 0.00013839		 0.00036637
O		6.50173167		2.06404266		7.26614712		 0.00037939		 0.00024867		 0.00012743
O		1.63233497		13.20529919		4.19501417		-0.00037939		-0.00024867		-0.00012743
O		0.40536792		9.16201529		8.52423972		 0.00020501		 0.00005304		 0.00006326
O		7.72869871		6.10732656		2.93692053		-0.00020501		-0.00005304		-0.00006326
O		1.23586097		3.91665037		4.56129226		 0.00008219		 0.00007535		 0.00011255
O		6.89820461		11.35269148		6.89986904		-0.00008219		-0.00007535		-0.00011255
O		8.12517166		10.55506570		1.98973396		 0.00006633		-0.00023493		-0.00021978
O		0.00889392		4.71427721		9.47142628		-0.00006633		 0.00023493		 0.00021978
O		2.73335141		1.68390064		3.90146824		 0.00020470		 0.00022409		 0.00011589
O		5.40071417		13.58544014		7.55969306		-0.00020470		-0.00022409		-0.00011589
O		6.62768122		8.41774350		2.12514918		-0.00003442		 0.00036693		 0.00006466
O		1.50638648		6.85159729		9.33601212		 0.00003442		-0.00036693		-0.00006466
O		0.80050677		1.90968338		5.82929522		-0.00006551		-0.00015146		-0.00018935
O		7.33355880		13.35965846		5.63186608		 0.00006551		 0.00015146		 0.00018935
O		6.10659175		9.35302915		9.96548988		-0.00025046		-0.00057437		-0.00035910
O		2.02747382		5.91631481		1.49567142		 0.00025046		 0.00057437		 0.00035910
O		0.07524997		1.61369585		3.24694774		 0.00001072		-0.00008414		 0.00005310
O		8.05881560		13.65564705		8.21421144		-0.00001072		 0.00008414		-0.00005310
O		9.28578265		8.50486685		2.78169939		-0.00001279		-0.00005539		 0.00023980
O		-1.15171602		6.76447499		8.67946191		 0.00001279		 0.00005539		-0.00023980
O		3.98348606		4.02212696		5.57920031		 0.00017284		 0.00038209		 0.00051764
O		4.15057952		11.24721594		5.88196099		-0.00017284		-0.00038209		-0.00051764
O		2.92361247		11.58809871		10.73728623		 0.00001747		 0.00013052		-0.00003795
O		5.21045311		3.68124420		0.72387401		-0.00001747		-0.00013052		 0.00003795
O		4.65489441		4.27738458		8.01896661		 0.00040285		 0.00005052		 0.00020540
O		3.47917116		10.99195621		3.44219363		-0.00040285		-0.00005052		-0.00020540
O		2.25220517		11.25671656		8.28838461		-0.00001149		-0.00011657		-0.00044792
O		5.88186146		4.01262529		3.17277563		 0.00001149		 0.00011657		 0.00044792
O		4.87379495		1.40141493		1.82529279		 0.00011370		 0.00012139		-0.00014921
O		3.26027062		13.86792798		9.63586745		-0.00011370		-0.00012139		 0.00014921
O		4.48723767		8.63256554		4.19320363		 0.00012367		-0.00032218		-0.00012318
O		3.64682896		6.63677631		7.26795556		-0.00012367		 0.00032218		 0.00012318
O		4.67919493		2.18575489		9.60033836		-0.00048512		-0.00034647		 0.00040251
O		3.45487170		13.08358802		1.86082188		 0.00048512		 0.00034647		-0.00040251
O		2.22790466		8.71889268		6.15147746		 0.00009674		 0.00017837		-0.00001390
O		5.90616198		6.55045023		5.30968278		-0.00009674		-0.00017837		 0.00001390
O		7.85626399		1.32412042		2.26953561		-0.00013604		 0.00012241		 0.00015524
O		0.27780158		13.94522143		9.19162463		 0.00013604		-0.00012241		-0.00015524
O		1.50476863		8.44483713		3.71715763		-0.00073486		 0.00007565		-0.00012079
O		6.62929800		6.82450578		7.74400155		 0.00073486		-0.00007565		 0.00012079
O		-1.10338921		1.97019063		8.15132825		-0.00007362		-0.00029177		-0.00033406
O		9.23745584		13.29915016		3.30983093		 0.00007362		 0.00029177		 0.00033406
O		8.01048880		8.84987365		7.59033791		 0.00008372		-0.00045771		-0.00011041
O		0.12357784		6.41946926		3.87082339		-0.00008372		 0.00045771		 0.00011041
O		9.65343718		1.15482995		0.40722400		-0.00008450		-0.00016096		 0.00030829
O		-1.51937054		14.11451296		11.05393624		 0.00008450		 0.00016096		-0.00030829
O		-0.29240349		8.72408397		5.59266507		-0.00012526		-0.00079216		-0.00033854
O		8.42647013		6.54525787		5.86849517		 0.00012526		 0.00079216		 0.00033854
O		1.35807613		2.07083592		8.75846850		 0.00039071		-0.00009034		-0.00025595
O		6.77599050		13.19850593		2.70269174		-0.00039071		 0.00009034		 0.00025595
O		5.54902345		8.80561792		6.98996445		-0.00071458		 0.00044233		 0.00001001
O		2.58504318		6.46372498		4.47119579		 0.00071458		-0.00044233		-0.00001001
O		2.03629998		1.11102528		0.81793250		 0.00009096		-0.00024019		 0.00001605
O		6.09776666		14.15831763		10.64322668		-0.00009096		 0.00024019		-0.00001605
O		7.32473264		8.57898920		5.15928766		 0.00008740		-0.00007289		-0.00029882
O		0.80933293		6.69035370		6.30187258		-0.00008740		 0.00007289		 0.00029882
O		2.21259335		4.21081253		7.39473203		 0.00024020		 0.00012484		 0.00017492
O		5.92147434		11.05852826		4.06642821		-0.00024020		-0.00012484		-0.00017492
O		4.69450729		11.34020505		8.91464891		 0.00004551		-0.00026300		-0.00004606
O		3.43956040		3.92913680		2.54651133		-0.00004551		 0.00026300		 0.00004606
O		8.35511654		1.82064678		5.30731954		-0.00022084		 0.00006105		 0.00010517
O		-0.22104990		13.44869507		6.15384070		 0.00022084		-0.00006105		-0.00010517
O		-1.44801695		9.38849472		10.48103652		 0.00031613		-0.00013126		 0.00041721
O		9.58208359		5.88084713		0.98012372		-0.00031613		 0.00013126		-0.00041721
O		-0.84821948		4.23849168		6.64122644		 0.00029155		-0.00001570		 0.00012403
O		8.98228717		11.03085017		4.81993380		-0.00029155		 0.00001570		-0.00012403
O		7.75532012		11.55217469		9.69691256		-0.00001449		 0.00005002		-0.00009447
O		0.37874651		3.71716716		1.76424768		 0.00001449		-0.00005002		 0.00009447
O		8.86703150		3.92408103		3.97482507		-0.00018526		-0.00008402		-0.00014855
O		-0.73296592		11.34526188		7.48633622		 0.00018526		 0.00008402		 0.00014855
O		0.49400112		10.70552117		2.59514837		-0.00015416		 0.00002829		 0.00029434
O		7.64006445		4.56382067		8.86601293		 0.00015416		-0.00002829		-0.00029434
H		-1.20765983		3.42412733		6.18819876		-0.00003833		-0.00015535		-0.00051123
H		9.34172647		11.84521558		5.27296148		 0.00003833		 0.00015535		 0.00051123
H		8.11475942		10.82433018		9.96487472		-0.00007772		 0.00002371		-0.00070130
H		0.01930722		4.44501273		1.49628553		 0.00007772		-0.00002371		 0.00070130
H		8.69894806		3.36348139		4.40921470		-0.00021093		 0.00017554		-0.00013156
H		-0.56488143		11.90585940		7.05194554		 0.00021093		-0.00017554		 0.00013156
H		0.66208562		10.02276460		2.01155371		-0.00033055		-0.00024845		-0.00010573
H		7.47198101		5.24657830		9.44960653		 0.00033055		 0.00024845		 0.00010573
