# total energy = -117600.171305 eV

CRYSTAL
PRIMVEC
		10.58799967		0.00000000		0.00000000
		0.00000000		14.09700041		-0.56388510
		-2.45393833		-0.39078189		9.76951553
PRIMECORD
   156 1
Si		8.18330189		-0.01502014		0.72385177		-0.00016612		-0.00011406		-0.00018217
Si		-0.04923632		13.72123971		8.48178925		 0.00016612		 0.00011406		 0.00018217
Si		1.17773073		6.89604148		3.87785170		 0.00000356		 0.00000377		-0.00004483
Si		6.95633484		6.81017704		5.32778932		-0.00000356		-0.00000377		 0.00004483
Si		3.61492732		2.41013260		6.47361947		-0.00007966		 0.00022119		 0.00031407
Si		4.51914037		11.29608697		2.73202050		 0.00007966		-0.00022119		-0.00031407
Si		3.29217333		9.39890590		7.68485275		 0.00010394		-0.00071128		 0.00006988
Si		4.84189437		4.30731262		1.52078827		-0.00010394		 0.00071128		-0.00006988
Si		1.21183891		1.60240799		4.09837538		-0.00007690		-0.00005622		 0.00018150
Si		6.92222666		12.10381159		5.10726458		 0.00007690		 0.00005622		-0.00018150
Si		8.14919371		8.78904771		0.36291004		-0.00006671		-0.00005193		-0.00002482
Si		-0.01512708		4.91716975		8.84272992		 0.00006671		 0.00005193		 0.00002482
Si		6.86524205		1.51466629		5.52839168		-0.00007546		 0.00041877		 0.00022624
Si		1.26882459		12.19155328		3.67724934		 0.00007546		-0.00041877		-0.00022624
Si		0.04185754		8.42482899		8.70486146		 0.00033543		-0.00020535		-0.00000399
Si		8.09220909		5.28138953		0.50077850		-0.00033543		 0.00020535		 0.00000399
Mg		4.06703279		-0.19538989		4.88475988		0.00000000		0.00000000		0.00000000
Mg		5.29399984		7.04850020		-0.28194043		0.00000000		0.00000000		0.00000000
Mg		4.39572559		2.32079741		3.38335718		-0.00055912		-0.00007186		 0.00025139
Mg		3.73834104		11.38542216		5.82228384		 0.00055912		 0.00007186		-0.00025139
Mg		4.96530809		9.45244730		1.02265783		-0.00023873		-0.00010337		-0.00020443
Mg		3.16875854		4.25377228		8.18298319		 0.00023873		 0.00010337		 0.00020443
Mg		5.29399984		0.00000000		0.00000000		0.00000000		0.00000000		0.00000000
Mg		4.06703279		6.85311032		4.60281945		0.00000000		0.00000000		0.00000000
Mg		6.19165257		-0.07945235		2.86243289		 0.00021787		 0.00008779		-0.00003746
Mg		1.94241301		13.78567086		6.34320813		-0.00021787		-0.00008779		 0.00003746
Mg		3.16938006		7.00276428		1.73757863		-0.00022477		-0.00005349		 0.00008114
Mg		4.96468552		6.70345424		7.46806134		 0.00022477		 0.00005349		-0.00008114
Mg		0.42170944		-0.05462137		1.48867805		-0.00005466		-0.00019099		 0.00012878
Mg		7.71235825		13.76083989		7.71696297		 0.00005466		 0.00019099		-0.00012878
Mg		8.93932424		6.91759865		3.11374753		-0.00008687		-0.00022822		-0.00013856
Mg		-0.80525761		6.78862093		6.09189243		 0.00008687		 0.00022822		 0.00013856
Mg		-0.86838750		-0.24310153		6.20071272		 0.00020156		 0.00019615		 0.00025932
Mg		9.00245519		13.94932111		3.00492831		-0.00020156		-0.00019615		-0.00025932
Mg		7.77548814		6.71529903		8.17123263		-0.00008891		-0.00004899		-0.00068260
Mg		0.35857849		6.99091949		1.03440733		 0.00008891		 0.00004899		 0.00068260
Mg		3.19404057		-0.04514511		2.10328072		-0.00012591		-0.00019734		-0.00006862
Mg		4.94002607		13.75136363		7.10236030		 0.00012591		 0.00019734		 0.00006862
Mg		6.16699311		6.97635146		2.49641527		-0.00029346		-0.00007218		 0.00012010
Mg		1.96707352		6.72986706		6.70922575		 0.00029346		 0.00007218		-0.00012010
Mg		6.57114024		2.34733941		1.11178549		 0.00020311		-0.00025160		 0.00011272
Mg		1.56292640		11.35888016		8.09385553		-0.00020311		 0.00025160		-0.00011272
Mg		2.78989239		9.29705781		3.29938375		-0.00019193		 0.00010612		 0.00002521
Mg		5.34417319		4.40916070		5.90625727		 0.00019193		-0.00010612		-0.00002521
Mg		-1.63791484		2.06025956		9.37603370		-0.00007636		 0.00013015		 0.00011513
Mg		9.77198042		11.64595895		-0.17039268		 0.00007636		-0.00013015		-0.00011513
Mg		8.54501337		9.28047700		4.80117080		 0.00029427		-0.00020395		 0.00030233
Mg		-0.41094780		4.42574151		4.40447022		-0.00029427		 0.00020395		-0.00030233
Mg		0.46893509		2.20413248		7.24646721		 0.00031591		 0.00020185		 0.00019192
Mg		7.66513154		11.50208604		1.95917381		-0.00031591		-0.00020185		-0.00019192
Mg		6.43816449		9.25417324		6.92603516		 0.00001553		-0.00001447		 0.00009062
Mg		1.69590108		4.45204634		2.27960586		-0.00001553		 0.00001447		-0.00009062
Mg		6.00405545		2.13039130		8.64314931		-0.00010353		-0.00006193		-0.00016810
Mg		2.13001119		11.57582722		0.56249066		 0.00010353		 0.00006193		 0.00016810
Mg		0.90304414		9.29210898		5.53078351		 0.00018110		-0.00005468		 0.00006195
Mg		7.23102249		4.41411059		3.67485646		-0.00018110		 0.00005468		-0.00006195
Mg		3.60529224		2.35870669		0.34555207		 0.00029595		-0.00001370		 0.00021277
Mg		4.52877334		11.34751183		8.86008895		-0.00029595		 0.00001370		-0.00021277
Mg		5.75574038		9.24706445		4.06716196		 0.00010757		 0.00019082		 0.00018864
Mg		2.37832519		4.45915406		5.13847906		-0.00010757		-0.00019082		-0.00018864
Mg		9.40458318		2.42452169		1.84228653		 0.00001605		-0.00037092		 0.00034088
Mg		-1.27051655		11.28169682		7.36335237		-0.00001605		 0.00037092		-0.00034088
Mg		-0.04354950		9.43302149		2.56035620		-0.00012400		 0.00015445		-0.00025082
Mg		8.17761719		4.27319702		6.64528482		 0.00012400		-0.00015445		 0.00025082
O		3.63390525		0.79842835		6.49926678		-0.00002593		 0.00001422		 0.00007527
O		4.50016138		12.90779017		2.70637318		 0.00002593		-0.00001422		-0.00007527
O		3.27319539		7.78408983		7.78826574		 0.00003071		 0.00053573		 0.00013084
O		4.86087230		5.92212868		1.41737528		-0.00003071		-0.00053573		-0.00013084
O		5.72267194		1.04476240		4.45767915		 0.00058993		-0.00012398		 0.00014583
O		2.41139469		12.66145612		4.74796187		-0.00058993		 0.00012398		-0.00014583
O		3.63836068		8.25840575		0.04713883		 0.00010806		-0.00017131		 0.00026427
O		4.49570490		5.44781277		9.15850219		-0.00010806		 0.00017131		-0.00026427
O		6.88739955		3.15951839		5.45869617		-0.00027050		 0.00036524		-0.00052528
O		1.24666708		10.54670012		3.74694379		 0.00027050		-0.00036524		 0.00052528
O		0.01970003		10.06936980		8.64298201		-0.00019977		 0.00011015		 0.00019316
O		8.11436554		3.63684871		0.56265795		 0.00019977		-0.00011015		-0.00019316
O		6.50173167		0.92468178		7.07262284		-0.00056331		-0.00026280		 0.00008250
O		1.63233497		12.78153674		2.13301818		 0.00056331		 0.00026280		-0.00008250
O		0.40536792		7.95669117		7.20295583		-0.00009998		 0.00007911		-0.00045770
O		7.72869871		5.74952735		2.00268414		 0.00009998		-0.00007911		 0.00045770
O		1.23586097		3.25247997		4.01432784		-0.00017295		-0.00015440		-0.00031471
O		6.89820461		10.45373854		5.19131212		 0.00017295		 0.00015440		 0.00031471
O		8.12517166		10.43767443		0.31500993		-0.00013660		 0.00024806		-0.00015645
O		0.00889392		3.26854409		8.89063109		 0.00013660		-0.00024806		 0.00015645
O		2.73335141		1.08334930		3.70411004		-0.00035939		-0.00046486		-0.00037886
O		5.40071417		12.62286921		5.50153098		 0.00035939		 0.00046486		 0.00037886
O		6.62768122		8.23673423		0.80003137		 0.00003378		 0.00001196		-0.00037296
O		1.50638648		5.46948428		8.40560965		-0.00003378		-0.00001196		 0.00037296
O		0.80050677		1.00057126		5.63283912		-0.00008407		 0.00007923		 0.00033980
O		7.33355880		12.70564725		3.57280084		 0.00008407		-0.00007923		-0.00033980
O		6.10659175		7.91745628		8.64127417		 0.00024977		 0.00004572		 0.00013278
O		2.02747382		5.78876330		0.56436685		-0.00024977		-0.00004572		-0.00013278
O		0.07524997		1.11802924		3.04823640		 0.00022472		-0.00008985		-0.00017312
O		8.05881560		12.58818928		6.15740356		-0.00022472		 0.00008985		 0.00017312
O		9.28578265		8.21897180		1.45522844		 0.00020372		 0.00002497		-0.00023635
O		-1.15171602		5.48724671		7.75041258		-0.00020372		-0.00002497		 0.00023635
O		3.98348606		3.19476585		5.03494325		-0.00013520		-0.00039048		 0.00008637
O		4.15057952		10.51145373		4.17069777		 0.00013520		 0.00039048		-0.00008637
O		2.92361247		10.07077483		9.06526956		 0.00006440		 0.00013287		-0.00006883
O		5.21045311		3.63544369		0.14037146		-0.00006440		-0.00013287		 0.00006883
O		4.65489441		3.05893134		7.48079976		 0.00005266		 0.00041547		-0.00002643
O		3.47917116		10.64728823		1.72484126		-0.00005266		-0.00041547		 0.00002643
O		2.25220517		10.13048691		6.62245816		-0.00009380		 0.00006069		 0.00003944
O		5.88186146		3.57573160		2.58318287		 0.00009380		-0.00006069		-0.00003944
O		4.87379495		1.13240139		1.63334824		 0.00002295		 0.00025303		-0.00008120
O		3.26027062		12.57381713		7.57229172		-0.00002295		-0.00025303		 0.00008120
O		4.48723767		8.12001742		2.87349947		 0.00011755		 0.00038648		-0.00052453
O		3.64682896		5.58620216		6.33214050		-0.00011755		-0.00038648		 0.00052453
O		4.67919493		0.66983815		9.43252915		 0.00004046		 0.00033037		-0.00022766
O		3.45487170		13.03638142		-0.22688813		-0.00004046		-0.00033037		 0.00022766
O		2.22790466		7.89012442		4.85590653		 0.00010357		-0.00005458		-0.00053886
O		5.90616198		5.81609410		4.34973344		-0.00010357		 0.00005458		 0.00053886
O		7.85626399		0.98148428		2.09879247		-0.00005596		-0.00052575		 0.00012025
O		0.27780158		12.72473530		7.10684643		 0.00005596		 0.00052575		-0.00012025
O		1.50476863		8.00591160		2.41865594		-0.00007222		 0.00037311		-0.00047205
O		6.62929800		5.70030797		6.78698508		 0.00007222		-0.00037311		 0.00047205
O		-1.10338921		0.68530404		7.99028477		 0.00023960		 0.00010961		-0.00001528
O		9.23745584		13.02091553		1.21535519		-0.00023960		-0.00010961		 0.00001528
O		8.01048880		7.79007523		6.30153377		-0.00027444		-0.00005289		 0.00000165
O		0.12357784		5.91614329		2.90410726		 0.00027444		 0.00005289		-0.00000165
O		9.65343718		1.11121798		0.22768540		-0.00037468		-0.00020555		 0.00033454
O		-1.51937054		12.59500054		8.97795562		 0.00037468		 0.00020555		-0.00033454
O		-0.29240349		7.98613322		4.28536581		 0.00008177		-0.00014478		-0.00025228
O		8.42647013		5.72008530		4.92027521		-0.00008177		 0.00014478		 0.00025228
O		1.35807613		0.68934760		8.59291348		 0.00009367		 0.00042198		-0.00007686
O		6.77599050		13.01687091		0.61272648		-0.00009367		-0.00042198		 0.00007686
O		5.54902345		7.84242124		5.69664982		-0.00016272		 0.00020193		 0.00000222
O		2.58504318		5.86379833		3.50899121		 0.00016272		-0.00020193		-0.00000222
O		2.03629998		0.99988728		0.65350616		 0.00005867		-0.00023005		 0.00009025
O		6.09776666		12.70633230		8.55213486		-0.00005867		 0.00023005		-0.00009025
O		7.32473264		7.90856448		3.86710065		 0.00012294		 0.00014876		 0.00010654
O		0.80933293		5.79765404		5.33853932		-0.00012294		-0.00014876		-0.00010654
O		2.21259335		3.09239895		6.85521203		-0.00004644		 0.00036079		-0.00029203
O		5.92147434		10.61382063		2.35042899		 0.00004644		-0.00036079		 0.00029203
O		4.69450729		10.11393469		7.24736825		 0.00030346		-0.00000985		-0.00019510
O		3.43956040		3.59228382		1.95827172		-0.00030346		 0.00000985		 0.00019510
O		8.35511654		0.99453716		5.11514840		-0.00045263		 0.00016218		-0.00048591
O		-0.22104990		12.71168135		4.09049050		 0.00045263		-0.00016218		 0.00048591
O		-1.44801695		7.86992039		9.16110684		 0.00046880		 0.00030843		-0.00015043
O		9.58208359		5.83629812		0.04453419		-0.00046880		-0.00030843		 0.00015043
O		-0.84821948		3.24293913		6.08253476		 0.00012930		-0.00006217		-0.00007820
O		8.98228717		10.46328045		3.12310626		-0.00012930		 0.00006217		 0.00007820
O		7.75532012		10.20304330		8.01046021		 0.00011813		 0.00050457		-0.00063538
O		0.37874651		3.50317522		1.19518081		-0.00011813		-0.00050457		 0.00063538
O		8.86703150		3.35526086		3.41523023		-0.00037792		 0.00018289		-0.00011680
O		-0.73296592		10.35095871		5.79041079		 0.00037792		-0.00018289		 0.00011680
O		0.49400112		10.49277967		0.90779286		 0.00005574		-0.00011097		 0.00007337
O		7.64006445		3.21343884		8.29784817		-0.00005574		 0.00011097		-0.00007337
H		-1.20765983		2.48625291		5.75288374		-0.00011964		 0.00023563		 0.00039998
H		9.34172647		11.21996667		3.45275728		 0.00011964		-0.00023563		-0.00039998
H		8.11475942		9.41751854		8.40180009		 0.00044569		-0.00020729		-0.00055027
H		0.01930722		4.28870103		0.80384094		-0.00044569		 0.00020729		 0.00055027
H		8.69894806		2.71322256		3.94908882		-0.00029617		 0.00005314		-0.00001999
H		-0.56488143		10.99299595		5.25655220		 0.00029617		-0.00005314		 0.00001999
H		0.66208562		9.89146176		0.42366822		 0.00007992		-0.00018247		-0.00001151
H		7.47198101		3.81475675		8.78197280		-0.00007992		 0.00018247		 0.00001151
