# total energy = -92497.4528011 eV	

CRYSTAL	
PRIMVEC	
		18.49999946		0.00000000		0.00000000	
		0.00000000		17.89998897		0.00000000	
		0.00000000		0.00000000		5.27000235	
PRIMCOORD
   164 1	
Mg		2.40499993		3.04299831		2.00259904		 0.00031935		 0.00031426		 0.00033694	
Mg		16.09499953		14.85699066		3.26739960		-0.00031935		-0.00031426		-0.00033694	
Mg		6.84499980		14.85699066		4.63760021		-0.00031935		-0.00031426		 0.00033694	
Mg		11.65499966		3.04299831		0.63240028		 0.00031935		 0.00031426		-0.00033694	
Mg		16.09499953		11.99299280		3.26739960		-0.00031935		 0.00031426		-0.00033694	
Mg		2.40499993		5.90699618		2.00259904		 0.00031935		-0.00031426		 0.00033694	
Mg		11.65499966		5.90699618		0.63240028		 0.00031935		-0.00031426		-0.00033694	
Mg		6.84499980		11.99299280		4.63760021		-0.00031935		 0.00031426		 0.00033694	
Mg		2.40499993		1.43199986		4.58489927		-0.00031351		 0.00029654		-0.00050509	
Mg		16.09499953		16.46799097		0.68509938		 0.00031351		-0.00029654		 0.00050509	
Mg		6.84499980		16.46799097		1.94989994		 0.00031351		-0.00029654		-0.00050509	
Mg		11.65499966		1.43199986		3.32010055		-0.00031351		 0.00029654		 0.00050509	
Mg		16.09499953		10.38199435		0.68509938		 0.00031351		 0.00029654		 0.00050509	
Mg		2.40499993		7.51799648		4.58489927		-0.00031351		-0.00029654		-0.00050509	
Mg		11.65499966		7.51799648		3.32010055		-0.00031351		-0.00029654		 0.00050509	
Mg		6.84499980		10.38199435		1.94989994		 0.00031351		 0.00029654		-0.00050509	
Mg		2.40499993		17.54198994		2.00259904		 0.00008373		 0.00027487		 0.00050883	
Mg		16.09499953		0.35800089		3.26739960		-0.00008373		-0.00027487		-0.00050883	
Mg		6.84499980		0.35800089		4.63760021		-0.00008373		-0.00027487		 0.00050883	
Mg		11.65499966		17.54198994		0.63240028		 0.00008373		 0.00027487		-0.00050883	
Mg		16.09499953		8.59199545		3.26739960		-0.00008373		 0.00027487		-0.00050883	
Mg		2.40499993		9.30799538		2.00259904		 0.00008373		-0.00027487		 0.00050883	
Mg		11.65499966		9.30799538		0.63240028		 0.00008373		-0.00027487		-0.00050883	
Mg		6.84499980		8.59199545		4.63760021		-0.00008373		 0.00027487		 0.00050883	
Mg		2.40499993		4.47499817		4.58489927		-0.00041021		0.00000000		 0.00074318	
Mg		16.09499953		13.42499266		0.68509938		 0.00041021		0.00000000		-0.00074318	
Mg		6.84499980		13.42499266		1.94989994		 0.00041021		0.00000000		 0.00074318	
Mg		11.65499966		4.47499817		3.32010055		-0.00041021		0.00000000		-0.00074318	
Si		0.55499998		14.67799207		1.52829976		-0.00005608		-0.00009002		 0.00012716	
Si		17.94500132		3.22199876		3.74170074		 0.00005608		 0.00009002		-0.00012716	
Si		8.69499974		3.22199876		4.16329908		 0.00005608		 0.00009002		 0.00012716	
Si		9.80499786		14.67799207		1.10669957		-0.00005608		-0.00009002		-0.00012716	
Si		17.94500132		5.72799758		3.74170074		 0.00005608		-0.00009002		-0.00012716	
Si		0.55499998		12.17199324		1.52829976		-0.00005608		 0.00009002		 0.00012716	
Si		9.80499786		12.17199324		1.10669957		-0.00005608		 0.00009002		-0.00012716	
Si		8.69499974		5.72799758		4.16329908		 0.00005608		-0.00009002		 0.00012716	
Si		0.55499998		16.46799097		4.16329908		 0.00014745		-0.00027413		 0.00028551	
Si		17.94500132		1.43199986		1.10669957		-0.00014745		 0.00027413		-0.00028551	
Si		8.69499974		1.43199986		1.52829976		-0.00014745		 0.00027413		 0.00028551	
Si		9.80499786		16.46799097		3.74170074		 0.00014745		-0.00027413		-0.00028551	
Si		17.94500132		7.51799648		1.10669957		-0.00014745		-0.00027413		-0.00028551	
Si		0.55499998		10.38199435		4.16329908		 0.00014745		 0.00027413		 0.00028551	
Si		9.80499786		10.38199435		3.74170074		 0.00014745		 0.00027413		-0.00028551	
Si		8.69499974		7.51799648		1.52829976		-0.00014745		-0.00027413		 0.00028551	
Si		4.06999988		16.46799097		0.21080009		 0.00018508		-0.00004036		 0.00030619	
Si		14.42999773		1.43199986		5.05920040		-0.00018508		 0.00004036		-0.00030619	
Si		5.17999985		1.43199986		2.84579942		-0.00018508		 0.00004036		 0.00030619	
Si		13.32000146		16.46799097		2.42419923		 0.00018508		-0.00004036		-0.00030619	
Si		14.42999773		7.51799648		5.05920040		-0.00018508		-0.00004036		-0.00030619	
Si		4.06999988		10.38199435		0.21080009		 0.00018508		 0.00004036		 0.00030619	
Si		13.32000146		10.38199435		2.42419923		 0.00018508		 0.00004036		-0.00030619	
Si		5.17999985		7.51799648		2.84579942		-0.00018508		-0.00004036		 0.00030619	
Si		4.06999988		14.67799207		2.84579942		-0.00012936		 0.00015056		 0.00028884	
Si		14.42999773		3.22199876		2.42419923		 0.00012936		-0.00015056		-0.00028884	
Si		5.17999985		3.22199876		0.21080009		 0.00012936		-0.00015056		 0.00028884	
Si		13.32000146		14.67799207		5.05920040		-0.00012936		 0.00015056		-0.00028884	
Si		14.42999773		5.72799758		2.42419923		 0.00012936		 0.00015056		-0.00028884	
Si		4.06999988		12.17199324		2.84579942		-0.00012936		-0.00015056		 0.00028884	
Si		13.32000146		12.17199324		5.05920040		-0.00012936		-0.00015056		-0.00028884	
Si		5.17999985		5.72799758		0.21080009		 0.00012936		 0.00015056		 0.00028884	
O		1.10999997		1.25299941		1.05400047		-0.00053554		-0.00008916		-0.00024025	
O		17.38999949		16.64699141		4.21600003		 0.00053554		 0.00008916		 0.00024025	
O		8.13999976		16.64699141		3.68899979		 0.00053554		 0.00008916		-0.00024025	
O		10.35999970		1.25299941		1.58100070		-0.00053554		-0.00008916		 0.00024025	
O		17.38999949		10.20299390		4.21600003		 0.00053554		-0.00008916		 0.00024025	
O		1.10999997		7.69699507		1.05400047		-0.00053554		 0.00008916		-0.00024025	
O		10.35999970		7.69699507		1.58100070		-0.00053554		 0.00008916		 0.00024025	
O		8.13999976		10.20299390		3.68899979		 0.00053554		-0.00008916		-0.00024025	
O		1.10999997		3.22199876		3.68899979		-0.00029988		 0.00016954		 0.00003582	
O		17.38999949		14.67799207		1.58100070		 0.00029988		-0.00016954		-0.00003582	
O		8.13999976		14.67799207		1.05400047		 0.00029988		-0.00016954		 0.00003582	
O		10.35999970		3.22199876		4.21600003		-0.00029988		 0.00016954		-0.00003582	
O		17.38999949		12.17199324		1.58100070		 0.00029988		 0.00016954		-0.00003582	
O		1.10999997		5.72799758		3.68899979		-0.00029988		-0.00016954		 0.00003582	
O		10.35999970		5.72799758		4.21600003		-0.00029988		-0.00016954		-0.00003582	
O		8.13999976		12.17199324		1.05400047		 0.00029988		 0.00016954		 0.00003582	
O		1.10999997		13.42499266		1.05400047		-0.00036376		-0.00000000		 0.00030120	
O		17.38999949		4.47499817		4.21600003		 0.00036376		0.00000000		-0.00030120	
O		8.13999976		4.47499817		3.68899979		 0.00036376		0.00000000		 0.00030120	
O		10.35999970		13.42499266		1.58100070		-0.00036376		0.00000000		-0.00030120	
O		1.10999997		4.47499817		1.05400047		 0.00093825		-0.00000000		-0.00022847	
O		17.38999949		13.42499266		4.21600003		-0.00093825		0.00000000		 0.00022847	
O		8.13999976		13.42499266		3.68899979		-0.00093825		0.00000000		-0.00022847	
O		10.35999970		4.47499817		1.58100070		 0.00093825		0.00000000		 0.00022847	
O		1.10999997		0.00000000		3.68899979		-0.00017423		-0.00006728		 0.00015849	
O		17.38999949		0.00000000		1.58100070		 0.00017423		 0.00006728		-0.00015849	
O		8.13999976		0.00000000		1.05400047		 0.00017423		 0.00006728		 0.00015849	
O		10.35999970		0.00000000		4.21600003		-0.00017423		-0.00006728		-0.00015849	
O		17.38999949		8.94999449		1.58100070		 0.00017423		-0.00006728		-0.00015849	
O		1.10999997		8.94999449		3.68899979		-0.00017423		 0.00006728		 0.00015849	
O		10.35999970		8.94999449		4.21600003		-0.00017423		 0.00006728		-0.00015849	
O		8.13999976		8.94999449		1.05400047		 0.00017423		-0.00006728		 0.00015849	
O		0.92499997		15.57299059		0.26349919		-0.00058838		 0.00018863		 0.00020906	
O		17.57499948		2.32699838		5.00649945		 0.00058838		-0.00018863		-0.00020906	
O		8.32499976		2.32699838		2.89850036		 0.00058838		-0.00018863		 0.00020906	
O		10.17499970		15.57299059		2.37150013		-0.00058838		 0.00018863		-0.00020906	
O		17.57499948		6.62299611		5.00649945		 0.00058838		 0.00018863		-0.00020906	
O		0.92499997		11.27699287		0.26349919		-0.00058838		-0.00018863		 0.00020906	
O		10.17499970		11.27699287		2.37150013		-0.00058838		-0.00018863		-0.00020906	
O		8.32499976		6.62299611		2.89850036		 0.00058838		 0.00018863		 0.00020906	
O		0.92499997		15.57299059		2.84579942		-0.00010480		 0.00021536		-0.00026252	
O		17.57499948		2.32699838		2.42419923		 0.00010480		-0.00021536		 0.00026252	
O		8.32499976		2.32699838		0.21080009		 0.00010480		-0.00021536		-0.00026252	
O		10.17499970		15.57299059		5.05920040		-0.00010480		 0.00021536		 0.00026252	
O		17.57499948		6.62299611		2.42419923		 0.00010480		 0.00021536		 0.00026252	
O		0.92499997		11.27699287		2.84579942		-0.00010480		-0.00021536		-0.00026252	
O		10.17499970		11.27699287		5.05920040		-0.00010480		-0.00021536		 0.00026252	
O		8.32499976		6.62299611		0.21080009		 0.00010480		 0.00021536		-0.00026252	
O		3.51499990		3.22199876		0.26349919		 0.00060206		 0.00031594		 0.00037424	
O		14.98499956		14.67799207		5.00649945		-0.00060206		-0.00031594		-0.00037424	
O		5.73499983		14.67799207		2.89850036		-0.00060206		-0.00031594		 0.00037424	
O		12.76499963		3.22199876		2.37150013		 0.00060206		 0.00031594		-0.00037424	
O		14.98499956		12.17199324		5.00649945		-0.00060206		 0.00031594		-0.00037424	
O		3.51499990		5.72799758		0.26349919		 0.00060206		-0.00031594		 0.00037424	
O		12.76499963		5.72799758		2.37150013		 0.00060206		-0.00031594		-0.00037424	
O		5.73499983		12.17199324		2.89850036		-0.00060206		 0.00031594		 0.00037424	
O		3.51499990		1.25299941		2.95119946		-0.00018714		 0.00013214		-0.00006911	
O		14.98499956		16.64699141		2.31879918		 0.00018714		-0.00013214		 0.00006911	
O		5.73499983		16.64699141		0.31620014		 0.00018714		-0.00013214		-0.00006911	
O		12.76499963		1.25299941		4.95380035		-0.00018714		 0.00013214		 0.00006911	
O		14.98499956		10.20299390		2.31879918		 0.00018714		 0.00013214		 0.00006911	
O		3.51499990		7.69699507		2.95119946		-0.00018714		-0.00013214		-0.00006911	
O		12.76499963		7.69699507		4.95380035		-0.00018714		-0.00013214		 0.00006911	
O		5.73499983		10.20299390		0.31620014		 0.00018714		 0.00013214		-0.00006911	
O		3.51499990		0.00000000		0.26349919		-0.00010239		-0.00031680		 0.00032248	
O		14.98499956		0.00000000		5.00649945		 0.00010239		 0.00031680		-0.00032248	
O		5.73499983		0.00000000		2.89850036		 0.00010239		 0.00031680		 0.00032248	
O		12.76499963		0.00000000		2.37150013		-0.00010239		-0.00031680		-0.00032248	
O		14.98499956		8.94999449		5.00649945		 0.00010239		-0.00031680		-0.00032248	
O		3.51499990		8.94999449		0.26349919		-0.00010239		 0.00031680		 0.00032248	
O		12.76499963		8.94999449		2.37150013		-0.00010239		 0.00031680		-0.00032248	
O		5.73499983		8.94999449		2.89850036		 0.00010239		-0.00031680		 0.00032248	
O		3.51499990		13.42499266		2.37150013		 0.00068338		0.00000000		 0.00015620	
O		14.98499956		4.47499817		2.89850036		-0.00068338		0.00000000		-0.00015620	
O		5.73499983		4.47499817		5.00649945		-0.00068338		0.00000000		 0.00015620	
O		12.76499963		13.42499266		0.26349919		 0.00068338		0.00000000		-0.00015620	
O		3.51499990		4.47499817		2.89850036		 0.00005647		0.00000000		-0.00087934	
O		14.98499956		13.42499266		2.37150013		-0.00005647		0.00000000		 0.00087934	
O		5.73499983		13.42499266		0.26349919		-0.00005647		0.00000000		-0.00087934	
O		12.76499963		4.47499817		5.00649945		 0.00005647		0.00000000		 0.00087934	
O		3.69999989		15.57299059		1.58100070		 0.00009879		 0.00032710		 0.00032114	
O		14.79999957		2.32699838		3.68899979		-0.00009879		-0.00032710		-0.00032114	
O		5.54999984		2.32699838		4.21600003		-0.00009879		-0.00032710		 0.00032114	
O		12.94999962		15.57299059		1.05400047		 0.00009879		 0.00032710		-0.00032114	
O		14.79999957		6.62299611		3.68899979		-0.00009879		 0.00032710		-0.00032114	
O		3.69999989		11.27699287		1.58100070		 0.00009879		-0.00032710		 0.00032114	
O		12.94999962		11.27699287		1.05400047		 0.00009879		-0.00032710		-0.00032114	
O		5.54999984		6.62299611		4.21600003		-0.00009879		 0.00032710		 0.00032114	
O		3.69999989		15.57299059		4.21600003		 0.00006111		 0.00015744		 0.00004999	
O		14.79999957		2.32699838		1.05400047		-0.00006111		-0.00015744		-0.00004999	
O		5.54999984		2.32699838		1.58100070		-0.00006111		-0.00015744		 0.00004999	
O		12.94999962		15.57299059		3.68899979		 0.00006111		 0.00015744		-0.00004999	
O		14.79999957		6.62299611		1.05400047		-0.00006111		 0.00015744		-0.00004999	
O		3.69999989		11.27699287		4.21600003		 0.00006111		-0.00015744		 0.00004999	
O		12.94999962		11.27699287		3.68899979		 0.00006111		-0.00015744		-0.00004999	
O		5.54999984		6.62299611		1.58100070		-0.00006111		 0.00015744		 0.00004999	
H		17.94500132		0.00000000		0.79049943		 0.00027345		-0.00015483		-0.00030480	
H		0.55499813		0.00000000		4.47949922		-0.00027345		 0.00015483		 0.00030480	
H		9.80499786		0.00000000		3.42550060		-0.00027345		 0.00015483		-0.00030480	
H		8.69500159		0.00000000		1.84449990		 0.00027345		-0.00015483		 0.00030480	
H		0.55499813		8.94999449		4.47949922		-0.00027345		-0.00015483		 0.00030480	
H		17.94500132		8.94999449		0.79049943		 0.00027345		 0.00015483		-0.00030480	
H		8.69500159		8.94999449		1.84449990		 0.00027345		 0.00015483		 0.00030480	
H		9.80499786		8.94999449		3.42550060		-0.00027345		-0.00015483		-0.00030480	
