# total energy = -10067.2841647 eV

CRYSTAL
PRIMVEC
		4.82861287		0.57943238		0.00000000
		0.57943238		4.82861287		0.00000000
		0.00000000		0.00000000		4.82861287
PRIMECORD
   12 1
Mg		0.00000000		0.00000000		0.00000000		0.00000000		0.00000000		0.00000000
Mg		2.41430595		0.28971716		2.41430595		0.00000000		-0.00000000		-0.00000000
Mg		0.28971716		2.41430595		2.41430595		0.00000000		0.00000000		-0.00000000
Mg		2.70402311		2.70402311		0.00000000		0.00000000		-0.00000000		-0.00000000
O		0.77332788		2.89791812		4.39681624		-0.00013568		 0.00000272		 0.00003879
O		4.63471835		2.51012810		0.43179615		 0.00013568		-0.00000272		-0.00003879
O		2.22041094		2.22041094		1.98251029		 0.00013568		-0.00000272		 0.00003879
O		3.18763431		3.18763431		2.84610210		-0.00013568		 0.00000272		-0.00003879
O		4.44863226		0.95941396		2.84610210		 0.00043077		-0.00011416		-0.00004049
O		0.95941396		4.44863226		1.98251029		-0.00043077		 0.00011416		 0.00004049
O		3.37371991		4.73834894		0.43179615		-0.00043077		 0.00011416		-0.00004049
O		2.03432582		0.66969680		4.39681624		 0.00043077		-0.00011416		 0.00004049
