# total energy = -10316.6003208 eV	

CRYSTAL	
PRIMVEC	
		4.97999864		0.00000000		0.39839889	
		0.00000000		8.85000086		0.00000000	
		0.21999992		0.00000000		2.74999900	
PRIMCOORD
   14 1	
Si		0.00000000		0.00000000		0.00000000		0.00000000		0.00000000		-0.00000000	
Si		2.48999982		4.42499993		0.19919995		0.00000000		0.00000000		0.00000000	
Mg		0.51786211		2.94616493		1.40762879		-0.00012656		 0.00053364		 0.00036732	
Mg		4.68213795		5.90383494		1.74077110		 0.00012656		-0.00053364		-0.00036732	
Mg		2.19213813		7.37116486		1.54157115		 0.00012656		 0.00053364		-0.00036732	
Mg		3.00786193		1.47883500		1.60682924		-0.00012656		-0.00053364		 0.00036732	
O		1.18767184		0.39647996		1.46121393		 0.00013838		-0.00000749		-0.00019674	
O		4.01232822		8.45352090		1.68718596		-0.00013838		 0.00000749		 0.00019674	
O		1.52232790		4.82147989		1.48798601		-0.00013838		-0.00000749		 0.00019674	
O		3.67767215		4.02851997		1.66041387		 0.00013838		 0.00000749		-0.00019674	
O		1.95465003		2.73199523		0.15637200		 0.00061405		 0.00092032		-0.00031524	
O		3.02535011		6.11800613		0.24202789		-0.00061405		-0.00092032		 0.00031524	
O		0.53534979		7.15699517		0.04282794		-0.00061405		 0.00092032		 0.00031524	
O		4.44464985		1.69300520		0.35557195		 0.00061405		-0.00092032		-0.00031524	
