# total energy = -9075.23524969 eV

CRYSTAL
PRIMVEC
		5.11310008		0.00000000		0.00000000
		0.00000000		5.57903644		0.00000000
		-0.00383994		0.00000000		7.33029878
PRIMECORD
   28 1
Mg		3.87988016		2.86762389		1.83990509		 0.00006639		-0.00004645		 0.00015460
Mg		1.22938202		0.07810618		5.49039420		-0.00006639		-0.00004645		-0.00015460
Si		1.27731580		0.07252677		1.83257495		 0.00014050		 0.00015044		 0.00017601
Si		3.83194690		2.86204499		5.49772434		-0.00014050		 0.00015044		-0.00017601
O		1.85420490		5.45071706		3.53320431		 0.00005199		 0.00016929		 0.00088599
O		3.25505627		2.66119986		3.79709498		-0.00005199		 0.00016929		-0.00088599
O		4.40885184		3.06846902		7.16903212		-0.00025696		-0.00009008		 0.00011333
O		0.70040983		0.27895182		0.16126718		 0.00025696		-0.00009008		-0.00011333
O		4.63492194		4.47996484		5.07989714		-0.00031625		-0.00036541		 0.00025647
O		0.47434025		1.69044713		2.25040215		 0.00031625		-0.00036541		-0.00025647
O		2.29781695		3.68774214		5.87890033		 0.00000707		 0.00009304		-0.00000779
O		2.81144524		0.89822494		1.45139896		-0.00000707		 0.00009304		 0.00000779
O		4.84599122		4.68080997		2.34569602		-0.00036801		-0.00011980		 0.00018661
O		0.26327097		1.89129328		4.98460327		 0.00036801		-0.00011980		-0.00018661
O		1.99853084		3.93321900		1.31945388		 0.00000418		-0.00003498		-0.00038378
O		3.11073084		1.14370181		6.01084490		-0.00000418		-0.00003498		 0.00038378
H		2.33481023		4.47996484		3.58451580		-0.00003459		 0.00025804		-0.00043300
H		2.77445196		1.69044713		3.74578298		 0.00003459		 0.00025804		 0.00043300
H		4.92013526		3.89974507		7.22034412		 0.00032764		-0.00014411		-0.00026116
H		0.18912692		1.11022787		0.10995415		-0.00032764		-0.00014411		 0.00026116
H		1.56163791		3.04615289		5.67365129		 0.00025045		-0.00007549		 0.00021651
H		3.54762427		0.25663621		1.65664801		-0.00025045		-0.00007549		-0.00021651
H		3.95984700		5.30566199		5.35844912		 0.00017729		 0.00004706		 0.00000641
H		1.14941518		2.51614479		1.97185017		-0.00017729		 0.00004706		-0.00000641
H		4.77904131		4.75333827		3.26198298		 0.00035845		-0.00003619		 0.00025218
H		0.33022088		1.96382005		4.06831631		-0.00035845		-0.00003619		-0.00025218
H		2.10639424		3.86627114		0.38850613		-0.00041153		 0.00019464		 0.00016247
H		3.00286794		1.07675394		6.94179317		 0.00041153		 0.00019464		-0.00016247
