# total energy = -9074.90291228 eV

CRYSTAL
PRIMVEC
		5.11310008		0.00000000		0.00000000
		0.00000000		5.70878135		0.00000000
		-0.00383994		0.00000000		7.33029878
PRIMECORD
   28 1
Mg		3.87988016		2.93431303		1.83990509		-0.00001536		 0.00017746		 0.00033657
Mg		1.22938202		0.07992287		5.49039420		 0.00001536		 0.00017746		-0.00033657
Si		1.27731580		0.07421409		1.83257495		 0.00006188		-0.00048920		 0.00015367
Si		3.83194690		2.92860426		5.49772434		-0.00006188		-0.00048920		-0.00015367
O		1.85420490		5.57747797		3.53320431		-0.00008023		 0.00024682		 0.00000608
O		3.25505627		2.72308780		3.79709498		 0.00008023		 0.00024682		-0.00000608
O		4.40885184		3.13982898		7.16903212		-0.00026827		 0.00015337		-0.00061979
O		0.70040983		0.28543881		0.16126718		 0.00026827		 0.00015337		 0.00061979
O		4.63492194		4.58414988		5.07989714		 0.00012021		-0.00017114		 0.00017687
O		0.47434025		1.72976022		2.25040215		-0.00012021		-0.00017114		-0.00017687
O		2.29781695		3.77350416		5.87890033		-0.00001343		 0.00015754		-0.00023883
O		2.81144524		0.91911400		1.45139896		 0.00001343		 0.00015754		 0.00023883
O		4.84599122		4.78966582		2.34569602		-0.00044452		 0.00010665		 0.00009157
O		0.26327097		1.93527617		4.98460327		 0.00044452		 0.00010665		-0.00009157
O		1.99853084		4.02469032		1.31945388		 0.00013288		 0.00005791		 0.00005615
O		3.11073084		1.17030015		6.01084490		-0.00013288		 0.00005791		-0.00005615
H		2.33481023		4.58414988		3.58451580		 0.00002758		 0.00026731		-0.00031796
H		2.77445196		1.72976022		3.74578298		-0.00002758		 0.00026731		 0.00031796
H		4.92013526		3.99043715		7.22034412		 0.00034140		-0.00030823		-0.00001136
H		0.18912692		1.13604698		0.10995415		-0.00034140		-0.00030823		 0.00001136
H		1.56163791		3.11699387		5.67365129		 0.00017276		-0.00025638		 0.00033911
H		3.54762427		0.26260422		1.65664801		-0.00017276		-0.00025638		-0.00033911
H		3.95984700		5.42904927		5.35844912		 0.00011587		 0.00004335		-0.00005578
H		1.14941518		2.57466013		1.97185017		-0.00011587		 0.00004335		 0.00005578
H		4.77904131		4.86387991		3.26198298		 0.00041849		-0.00008001		 0.00060082
H		0.33022088		2.00949026		4.06831631		-0.00041849		-0.00008001		-0.00060082
H		2.10639424		3.95618398		0.38850613		-0.00064691		 0.00009456		-0.00003290
H		3.00286794		1.10179484		6.94179317		 0.00064691		 0.00009456		 0.00003290
