# total energy = -13384.2819794 eV

CRYSTAL
PRIMVEC
		2.90034985		0.00000000		0.00000000
		-1.45017493		2.64397633		0.00000000
		0.00000000		0.00000000		20.12499976
PRIMECORD
   18 1
O		0.00000000		0.00000000		6.26491259		0.00000000		-0.00068642		 0.00032732
O		0.00000000		0.00000000		13.86008630		0.00000000		 0.00068642		-0.00032732
O		1.45017493		0.88132496		8.61752470		0.00000000		 0.00060481		-0.00030396
O		0.00000000		1.76264992		11.50747448		0.00000000		-0.00060481		 0.00030396
O		1.45017493		0.88132496		1.44497489		0.00000000		-0.00082461		-0.00000430
O		0.00000000		1.76264992		18.68002400		0.00000000		 0.00082461		 0.00000430
O		0.00000000		1.76264992		3.79758787		0.00000000		 0.00065423		-0.00075103
O		1.45017493		0.88132496		16.32741131		0.00000000		-0.00065423		 0.00075103
H		1.45017493		0.88132496		9.60767456		0.00000000		 0.00015329		-0.00033643
H		0.00000000		1.76264992		10.51732433		0.00000000		-0.00015329		 0.00033643
H		1.45017493		0.88132496		0.45482503		0.00000000		-0.00015778		 0.00010563
H		0.00000000		1.76264992		19.67017386		0.00000000		 0.00015778		-0.00010563
Mg		0.00000000		1.76264992		7.50461261		0.00000000		-0.00017956		 0.00003779
Mg		1.45017493		0.88132496		12.62038629		0.00000000		 0.00017956		-0.00003779
Mg		0.00000000		0.00000000		2.55788785		0.00000000		-0.00000112		-0.00032663
Mg		0.00000000		0.00000000		17.56711220		0.00000000		 0.00000112		 0.00032663
Mg		1.45017493		0.88132496		5.03326162		0.00000000		 0.00004558		-0.00018792
Mg		0.00000000		1.76264992		15.09173611		0.00000000		-0.00004558		 0.00018792
