# total energy = -18388.8732855 eV

CRYSTAL
PRIMVEC
		11.10979961		0.00000000		0.00000000
		0.00000000		5.75045450		0.00000000
		0.00000000		0.00000000		4.82809672
PRIMECORD
   28 1
Mg		0.00000000		0.00000000		0.00000000		0.00000000		0.00000000		0.00000000
Mg		5.55489981		0.00000000		2.41404947		0.00000000		0.00000000		0.00000000
Mg		0.00000000		2.87522947		0.00000000		0.00000000		0.00000000		0.00000000
Mg		5.55489981		2.87522947		2.41404947		0.00000000		-0.00000000		0.00000000
Ca		3.07563692		1.43761474		4.71922735		-0.00001689		0.00000000		 0.00007826
Ca		8.03416380		4.31284532		0.10887381		 0.00001689		-0.00000000		-0.00007826
Ca		2.47926288		4.31284532		2.30517677		 0.00001689		0.00000000		 0.00007826
Ca		8.63053673		1.43761474		2.52292439		-0.00001689		0.00000000		-0.00007826
Si		0.90611526		1.43761474		1.98425243		-0.00044515		0.00000000		-0.00006354
Si		10.20368436		4.31284532		2.84384762		 0.00044515		0.00000000		 0.00006354
Si		4.64878455		4.31284532		4.39830301		 0.00044515		-0.00000000		-0.00006354
Si		6.46101617		1.43761474		0.42979815		-0.00044515		0.00000000		 0.00006354
O		0.86289814		1.43761474		3.60031388		-0.00003422		0.00000000		-0.00065784
O		10.24690148		4.31284532		1.22778617		 0.00003422		-0.00000000		 0.00065784
O		4.69200167		4.31284532		1.18626441		 0.00003422		0.00000000		-0.00065784
O		6.41779794		1.43761474		3.64183564		-0.00003422		0.00000000		 0.00065784
O		4.98841224		1.43761474		1.18771313		-0.00041250		0.00000000		-0.00061061
O		6.12138849		4.31284532		3.64038803		 0.00041250		0.00000000		 0.00061061
O		0.56648868		4.31284532		3.60176259		 0.00041250		0.00000000		-0.00061061
O		10.54331204		1.43761474		1.22633745		-0.00041250		-0.00000000		 0.00061061
O		1.63902874		0.26279564		1.31951979		 0.00037334		-0.00053714		 0.00019691
O		9.47077088		5.48766330		3.50858026		-0.00037334		 0.00053714		-0.00019691
O		3.91587107		5.48766330		3.73357037		-0.00037334		 0.00053714		 0.00019691
O		7.19392854		0.26279564		1.09452968		 0.00037334		-0.00053714		-0.00019691
O		9.47077088		3.13802623		3.50858026		-0.00037334		-0.00053714		-0.00019691
O		1.63902874		2.61243383		1.31951979		 0.00037334		 0.00053714		 0.00019691
O		7.19392854		2.61243383		1.09452968		 0.00037334		 0.00053714		-0.00019691
O		3.91587107		3.13802623		3.73357037		-0.00037334		-0.00053714		 0.00019691
