# total energy = -10317.257073 eV	

CRYSTAL	
PRIMVEC	
		4.96736060		0.00000000		0.00000000	
		0.00000000		8.69838147		0.00000000	
		0.00000000		0.00000000		2.79038355	
PRIMCOORD
   14 1	
Si		0.00000000		0.00000000		0.00000000		-0.00000005		-0.00000006		0.00000000	
Si		2.48368130		4.34919173		0.00000000		 0.00000005		 0.00000002		-0.00000002	
Mg		0.34076645		2.76691431		1.39519178		-0.00025325		-0.00006515		-0.00000001	
Mg		4.62659615		5.93146915		1.39519178		 0.00025323		 0.00006519		-0.00000001	
Mg		2.14291485		7.11610604		1.39519178		 0.00025324		-0.00006526		-0.00000001	
Mg		2.82444775		1.58227742		1.39519128		-0.00025321		 0.00006526		 0.00000001	
O		1.13758236		0.41544752		1.39519128		-0.00004580		 0.00002437		 0.00000002	
O		3.82978024		8.28293594		1.39519178		 0.00004571		-0.00002430		-0.00000001	
O		1.34609894		4.76463875		1.39519178		 0.00004575		 0.00002435		-0.00000001	
O		3.62126316		3.93374421		1.39519178		-0.00004567		-0.00002437		 0.00000001	
O		1.82223174		2.73169973		0.00000000		 0.00007782		-0.00024834		 0.00000001	
O		3.14513085		5.96668373		0.00000000		-0.00007787		 0.00024830		0.00000000	
O		0.66144956		7.08089096		0.00000000		-0.00007781		-0.00024827		 0.00000001	
O		4.30591304		1.61749200		0.00000000		 0.00007786		 0.00024825		 0.00000001	
