# total energy = -10317.314154 eV	

CRYSTAL	
PRIMVEC	
		4.98429260		0.00000000		0.00000000	
		0.00000000		8.74199133		0.00000000	
		0.00000000		0.00000000		2.80065231	
PRIMCOORD
   14 1	
Si		0.00000000		0.00000000		0.00000000		 0.00000007		 0.00000021		 0.00000001	
Si		2.49214580		4.37099566		0.00000000		 0.00000001		-0.00000019		-0.00000002	
Mg		0.33902245		2.77797788		1.40032665		-0.00035258		-0.00008334		-0.00000000	
Mg		4.64526915		5.96401345		1.40032665		 0.00035259		 0.00008321		-0.00000000	
Mg		2.15312335		7.14897304		1.40032665		 0.00035276		-0.00008239		-0.00000000	
Mg		2.83116876		1.59301779		1.40032665		-0.00035277		 0.00008248		 0.00000001	
O		1.13801313		0.42018201		1.40032665		-0.00010352		-0.00009395		 0.00000002	
O		3.84627898		8.32180882		1.40032665		 0.00010367		 0.00009387		-0.00000001	
O		1.35413267		4.79117767		1.40032665		 0.00010428		-0.00009409		-0.00000002	
O		3.63015893		3.95081365		1.40032665		-0.00010425		 0.00009420		 0.00000002	
O		1.82477901		2.75077313		0.00000000		 0.00010240		-0.00020852		-0.00000000	
O		3.15951260		5.99121819		0.00000000		-0.00010250		 0.00020858		-0.00000000	
O		0.66736679		7.12176880		0.00000000		-0.00010258		-0.00020915		-0.00000001	
O		4.31692531		1.62022253		0.00000000		 0.00010243		 0.00020909		-0.00000001	
