# total energy = -34524.4898651 eV

CRYSTAL
PRIMVEC
		9.34400121		1.12127789		0.00000000
		0.63695774		5.30800313		0.00000000
		-0.48050868		-0.05766142		13.28131518
PRIMECORD
   56 1
Si		1.56200141		2.69231295		4.82257718		-0.00009361		-0.00023383		 0.00028711
Si		7.93845357		3.67930571		8.45873329		 0.00009361		 0.00023383		-0.00028711
Si		8.15169918		3.48307713		1.81807852		-0.00002069		-0.00015118		 0.00014557
Si		1.34875580		2.88854152		11.46323195		 0.00002069		 0.00015118		-0.00014557
Si		6.55248183		5.90695252		4.82257718		 0.00002370		-0.00022735		 0.00016391
Si		2.94797410		0.46466614		8.45873329		-0.00002370		 0.00022735		-0.00016391
Si		3.79817932		5.57643693		1.81807852		-0.00003580		-0.00016278		 0.00004264
Si		5.70227660		0.79518172		11.46323195		 0.00003580		 0.00016278		-0.00004264
Mg		4.75022796		3.18580980		6.64065477		0.00000000		0.00000000		0.00000000
Mg		4.99047948		3.21463957		0.00000000		0.00000000		0.00000000		0.00000000
Mg		-0.24025246		-0.02882977		6.64065477		0.00000000		0.00000000		0.00000000
Mg		0.00000000		0.00000000		0.00000000		0.00000000		0.00000000		0.00000000
O		0.59819839		1.18976858		4.97119438		-0.00017368		-0.00019318		 0.00089383
O		8.90225659		5.18185007		8.31011609		 0.00017368		 0.00019318		-0.00089383
O		8.77778529		2.17131988		1.66946132		-0.00005128		-0.00015084		 0.00026582
O		0.72266969		4.20029972		11.61185009		 0.00005128		 0.00015084		-0.00026582
O		5.58867881		4.40440909		4.97119438		-0.00020179		-0.00021612		 0.00090679
O		3.91177712		1.96720956		8.31011609		 0.00020179		 0.00021612		-0.00090679
O		4.42426544		4.26467967		1.66946132		-0.00005455		-0.00014746		 0.00027245
O		5.07618955		2.10693992		11.61185009		 0.00005455		 0.00014746		-0.00027245
O		2.95525730		2.75696489		5.63791546		-0.00008561		 0.00006041		 0.00028007
O		6.54519769		3.61465377		7.64339407		 0.00008561		-0.00006041		-0.00028007
O		6.73347487		3.21035190		1.00273930		-0.00003347		-0.00019939		 0.00034398
O		2.76698105		3.16126770		12.27857117		 0.00003347		 0.00019939		-0.00034398
O		7.94573677		5.97160539		5.63791546		-0.00012484		 0.00005978		 0.00026962
O		1.55471915		0.40001420		7.64339407		 0.00012484		-0.00005978		-0.00026962
O		2.37995502		5.30371169		1.00273930		-0.00000530		-0.00020214		 0.00036628
O		7.12050091		1.06790790		12.27857117		 0.00000530		 0.00020214		-0.00036628
O		0.84468471		3.70800278		5.65518189		 0.00016388		-0.00019674		 0.00001159
O		8.65577027		2.66361588		7.62612858		-0.00016388		 0.00019674		-0.00001159
O		9.13730381		4.70311726		0.98547287		-0.00030098		 0.00009145		 0.00005706
O		0.36315212		1.66850234		12.29583666		 0.00030098		-0.00009145		-0.00005706
O		5.19820457		1.61464298		5.65518189		 0.00010472		-0.00014068		 0.00006112
O		4.30225041		4.75697662		7.62612858		-0.00010472		 0.00014068		-0.00006112
O		4.14682433		1.48847675		0.98547287		-0.00031069		 0.00008807		 0.00006267
O		5.35363159		4.88314191		12.29583666		 0.00031069		-0.00008807		-0.00006267
O		1.82855112		3.28669328		3.35087466		-0.00027071		 0.00007069		 0.00013081
O		7.67190480		3.08492726		9.93043581		 0.00027071		-0.00007069		-0.00013081
O		8.02209604		4.02991762		3.28978104		-0.00017303		 0.00002109		-0.00001438
O		1.47835989		2.34170104		9.99152943		 0.00017303		-0.00002109		 0.00001438
O		6.18207098		1.19333254		3.35087466		-0.00029124		 0.00005018		 0.00021079
O		3.31838494		5.17828705		9.93043581		 0.00029124		-0.00005018		-0.00021079
O		3.03161562		0.81527805		3.28978104		-0.00017578		 0.00003769		 0.00006184
O		6.46883936		5.55634155		9.99152943		 0.00017578		-0.00003769		-0.00006184
Ca		1.89713311		2.73880723		1.18761534		-0.00047372		 0.00035978		-0.00036794
Ca		7.60332282		3.63281142		12.09369607		 0.00047372		-0.00035978		 0.00036794
Ca		7.81809583		3.44932257		5.45304037		-0.00022371		-0.00008296		-0.00013084
Ca		1.68235915		2.92229703		7.82827010		 0.00022371		 0.00008296		 0.00013084
Ca		6.88761258		5.95344680		1.18761534		-0.00047446		 0.00036149		-0.00036959
Ca		2.61284334		0.41817186		12.09369607		 0.00047446		-0.00036149		 0.00036959
Ca		3.46457598		5.54268237		5.45304037		-0.00024156		-0.00008149		-0.00013500
Ca		6.03587900		0.82893723		7.82827010		 0.00024156		 0.00008149		 0.00013500
Ca		0.47167266		4.91724750		3.32032832		-0.00035794		 0.00038797		 0.00000607
Ca		-0.31521795		0.33309233		9.96098309		 0.00035794		-0.00038797		-0.00000607
Ca		4.82519251		2.82388770		3.32032832		-0.00034541		 0.00038610		-0.00000459
Ca		4.67526153		3.54773189		9.96098309		 0.00034541		-0.00038610		 0.00000459
