# total energy = -34531.3143618 eV

CRYSTAL
PRIMVEC
		9.34400001		-0.37375963		0.00000000
		-0.21231582		5.30799828		0.00000000
		-0.48050668		0.01921727		13.28130631
PRIMECORD
   56 1
Si		1.15536593		2.49118908		4.82257647		 0.00015582		 0.00056575		 0.00043303
Si		7.49580878		2.46227059		8.45873358		-0.00015582		-0.00056575		-0.00043303
Si		7.74506385		2.22760195		1.81807855		-0.00017451		-0.00017385		 0.00053116
Si		0.90611180		2.72585866		11.46323150		 0.00017451		 0.00017385		-0.00053116
Si		5.72120616		4.95830841		4.82257647		 0.00015530		 0.00056519		 0.00043389
Si		2.92996949		-0.00484874		8.45873358		-0.00015530		-0.00056519		-0.00043389
Si		2.96690406		5.06848184		1.81807855		-0.00017548		-0.00017349		 0.00053217
Si		5.68427158		-0.11502123		11.46323150		 0.00017548		 0.00017349		-0.00053217
Mg		4.32558782		2.47672984		6.64065502		0.00000000		0.00000000		0.00000000
Mg		4.56584023		2.46712026		0.00000000		0.00000000		0.00000000		0.00000000
Mg		-0.24025240		0.00960957		6.64065502		0.00000000		0.00000000		0.00000000
Mg		0.00000000		0.00000000		0.00000000		0.00000000		0.00000000		0.00000000
O		0.41670720		1.11583632		4.97119474		-0.00042934		-0.00072038		 0.00030095
O		8.23446752		3.83762428		8.31011531		 0.00042934		 0.00072038		-0.00030095
O		8.59629466		0.78865264		1.66946122		-0.00003807		 0.00093987		 0.00077229
O		0.05488098		4.16480703		11.61184976		 0.00003807		-0.00093987		-0.00077229
O		4.98254649		3.58295565		4.97119474		-0.00042909		-0.00072002		 0.00030086
O		3.66862822		1.37050402		8.31011531		 0.00042909		 0.00072002		-0.00030086
O		3.81813488		3.62953253		1.66946122		-0.00003779		 0.00093951		 0.00077214
O		4.83304077		1.32392714		11.61184976		 0.00003779		-0.00093951		-0.00077214
O		2.56526770		2.33092262		5.63791540		-0.00036096		 0.00016468		 0.00022006
O		6.08590795		2.62253705		7.64339371		 0.00036096		-0.00016468		-0.00022006
O		6.34348489		2.17979348		1.00273869		 0.00039327		 0.00019070		-0.00079552
O		2.30769076		2.77366619		12.27857136		-0.00039327		-0.00019070		 0.00079552
O		7.13110793		4.79804288		5.63791540		-0.00036090		 0.00016468		 0.00021999
O		1.52006772		0.15541679		7.64339371		 0.00036090		-0.00016468		-0.00021999
O		1.56532510		5.02067524		1.00273869		 0.00039361		 0.00019069		-0.00079545
O		7.08584961		-0.06721370		12.27857136		-0.00039361		-0.00019069		 0.00079545
O		0.25919100		3.64311273		5.65518196		 0.00021897		 0.00008591		-0.00022836
O		8.39198464		1.31034694		7.62612902		-0.00021897		-0.00008591		 0.00022836
O		8.55180971		3.31140761		0.98547306		 0.00039307		 0.00063346		-0.00007618
O		0.09936593		1.64205206		12.29583605		-0.00039307		-0.00063346		 0.00007618
O		5.03735079		0.80223284		5.65518196		 0.00021914		 0.00008581		-0.00022847
O		3.61382486		4.15122776		7.62612902		-0.00021914		-0.00008581		 0.00022847
O		3.98596949		0.84428828		0.98547306		 0.00039344		 0.00063380		-0.00007650
O		4.66520616		4.10917139		12.29583605		-0.00039344		-0.00063380		 0.00007650
O		1.33061812		3.05387556		3.35087456		-0.00023577		-0.00001389		 0.00030469
O		7.32055753		1.89958411		9.93043549		 0.00023577		 0.00001389		-0.00030469
O		7.52416245		2.80613450		3.28978046		-0.00040243		 0.00007106		 0.00015334
O		1.12701320		2.14732611		9.99152959		 0.00040243		-0.00007106		-0.00015334
O		6.10877791		0.21299567		3.35087456		-0.00023565		-0.00001367		 0.00030402
O		2.54239774		4.74046400		9.93043549		 0.00023565		 0.00001367		-0.00030402
O		2.95832315		0.33901517		3.28978046		-0.00040227		 0.00007082		 0.00015262
O		5.69285156		4.61444544		9.99152959		 0.00040227		-0.00007082		-0.00015262
Ca		1.48947906		2.48418389		1.18761542		 0.00034439		 0.00009294		-0.00040101
Ca		7.16169659		2.46927578		12.09369557		-0.00034439		-0.00009294		 0.00040101
Ca		7.41044200		2.24734571		5.45304054		 0.00001879		 0.00020229		-0.00015375
Ca		1.24073365		2.70611396		7.82826950		-0.00001879		-0.00020229		 0.00015375
Ca		6.05531835		4.95130416		1.18761542		 0.00034453		 0.00009296		-0.00040101
Ca		2.59585730		0.00215645		12.09369557		-0.00034453		-0.00009296		 0.00040101
Ca		2.63228222		5.08822560		5.45304054		 0.00001886		 0.00020227		-0.00015375
Ca		6.01889343		-0.13476593		7.82826950		-0.00001886		-0.00020227		 0.00015375
Ca		-0.31739269		4.93646805		3.32032798		-0.00036421		-0.00010706		-0.00080373
Ca		-0.37543167		0.39075219		9.96098300		 0.00036421		 0.00010706		 0.00080373
Ca		4.46076709		2.09558816		3.32032798		-0.00036431		-0.00010708		-0.00080364
Ca		4.19040762		2.85787151		9.96098300		 0.00036431		 0.00010708		 0.00080364
