# total energy = -34521.1720484 eV

CRYSTAL
PRIMVEC
		9.34400334		1.49504470		0.00000000
		0.84928108		5.30800436		0.00000000
		-0.48050446		-0.07688563		13.28131428
PRIMECORD
   56 1
Si		1.66366033		2.74259430		4.82257733		 0.00013743		-0.00028084		 0.00019077
Si		8.04911489		3.98356534		8.45873410		-0.00013743		 0.00028084		-0.00019077
Si		8.25335815		3.79694569		1.81807886		-0.00030580		 0.00017468		-0.00042857
Si		1.45941802		2.92921301		11.46323163		 0.00030580		-0.00017468		 0.00042857
Si		6.76029970		6.14411410		4.82257733		 0.00014238		-0.00030429		 0.00022010
Si		2.95247552		0.58204459		8.45873410		-0.00014238		 0.00030429		-0.00022010
Si		4.00599796		5.70342552		1.81807886		-0.00011178		 0.00012912		-0.00003781
Si		5.70677821		1.02273317		11.46323163		 0.00011178		-0.00012912		 0.00003781
Mg		4.85638809		3.36307982		6.64065525		0.00000000		0.00000000		0.00000000
Mg		5.09664031		3.40151980		0.00000000		0.00000000		0.00000000		0.00000000
Mg		-0.24025223		-0.03843998		6.64065525		0.00000000		0.00000000		0.00000000
Mg		0.00000000		0.00000000		0.00000000		0.00000000		0.00000000		0.00000000
O		0.64357108		1.20825229		4.97119513		 0.00079664		-0.00014009		-0.00021642
O		9.06920414		5.51790735		8.31011630		-0.00079664		 0.00014009		 0.00021642
O		8.82315876		2.51698583		1.66946106		 0.00081346		-0.00025587		-0.00035348
O		0.88961741		4.20917286		11.61184943		-0.00081346		 0.00025587		 0.00035348
O		5.74021045		4.60977209		4.97119513		 0.00081618		-0.00014077		-0.00022010
O		3.97256383		2.11638660		8.31011630		-0.00081618		 0.00014077		 0.00022010
O		4.57579858		4.42346566		1.66946106		 0.00081138		-0.00030601		-0.00039519
O		5.13697665		2.30269303		11.61184943		-0.00081138		 0.00030601		 0.00039519
O		3.05275521		2.86347555		5.63791612		-0.00040970		 0.00082089		-0.00043419
O		6.66002096		3.86268314		7.64339342		 0.00040970		-0.00082089		 0.00043419
O		6.83097203		3.46799062		1.00273912		-0.00030815		-0.00001860		 0.00015551
O		2.88180414		3.25816807		12.27857137		 0.00030815		 0.00001860		-0.00015551
O		8.14939458		6.26499630		5.63791612		-0.00041258		 0.00082612		-0.00044676
O		1.56338065		0.46116334		7.64339342		 0.00041258		-0.00082612		 0.00044676
O		2.58361185		5.37447045		1.00273912		-0.00041161		 0.00001018		 0.00013105
O		7.12916432		1.35168919		12.27857137		 0.00041161		-0.00001018		-0.00013105
O		0.99105819		3.72422560		5.65518203		 0.00051163		 0.00004335		 0.00000906
O		8.72171798		3.00193404		7.62612846		-0.00051163		-0.00004335		-0.00000906
O		9.28367674		5.05104453		0.98547321		 0.00001288		-0.00004274		-0.00086944
O		0.42909943		1.67511511		12.29583728		-0.00001288		 0.00004274		 0.00086944
O		5.23841837		1.81774577		5.65518203		 0.00049613		 0.00006760		 0.00002168
O		4.47435780		4.90841387		7.62612846		-0.00049613		-0.00006760		-0.00002168
O		4.18703737		1.64952473		0.98547321		 0.00001213		-0.00002681		-0.00088948
O		5.52573880		5.07663491		12.29583728		-0.00001213		 0.00002681		 0.00088948
O		1.95303420		3.34489696		3.35087464		 0.00035803		 0.00019235		 0.00000602
O		7.75974102		3.38126268		9.93043585		-0.00035803		-0.00019235		-0.00000602
O		8.14657843		4.33586430		3.28978061		-0.00001339		 0.00015737		-0.00003496
O		1.56619679		2.39029534		9.99152989		 0.00001339		-0.00015737		 0.00003496
O		6.20039344		1.43841713		3.35087464		 0.00037521		 0.00019181		-0.00001172
O		3.51238178		5.28774251		9.93043585		-0.00037521		-0.00019181		 0.00001172
O		3.04993906		0.93434356		3.28978061		-0.00010499		 0.00018837		-0.00033927
O		6.66283616		5.79181514		9.99152989		 0.00010499		-0.00018837		 0.00033927
Ca		1.99904730		2.80246290		1.18761477		 0.00013137		-0.00002210		-0.00022424
Ca		7.71372887		3.92369580		12.09369572		-0.00013137		 0.00002210		 0.00022424
Ca		7.92000948		3.74981692		5.45304048		-0.00030507		 0.00044819		-0.00025817
Ca		1.79276574		2.97634177		7.82827002		 0.00030507		-0.00044819		 0.00025817
Ca		7.09568666		6.20398270		1.18761477		 0.00012700		-0.00003527		-0.00020795
Ca		2.61708856		0.52217694		12.09369572		-0.00012700		 0.00003527		 0.00020795
Ca		3.67265024		5.65629676		5.45304048		-0.00029559		 0.00044378		-0.00025354
Ca		6.04012593		1.06986288		7.82827002		 0.00029559		-0.00044378		 0.00025354
Ca		0.66894003		4.91244315		3.32032762		-0.00014638		-0.00035550		 0.00015738
Ca		-0.30016435		0.31867747		9.96098287		 0.00014638		 0.00035550		-0.00015738
Ca		4.91630021		3.00596332		3.32032762		-0.00015157		-0.00033684		 0.00015444
Ca		4.79647596		3.72019727		9.96098287		 0.00015157		 0.00033684		-0.00015444
