# total energy = -34524.4898656 eV

CRYSTAL
PRIMVEC
		9.34400121		-1.12127789		0.00000000
		-0.63695774		5.30800313		0.00000000
		-0.48050868		0.05766142		13.28131518
PRIMECORD
   56 1
Si		0.95204770		2.39062713		4.82257718		 0.00004751		-0.00025294		 0.00003210
Si		7.27448710		1.85375294		8.45873329		-0.00004751		 0.00025294		-0.00003210
Si		7.54174547		1.59986389		1.81807852		-0.00009269		-0.00023457		-0.00011039
Si		0.68478933		2.64451712		11.46323195		 0.00009269		 0.00023457		 0.00011039
Si		5.30556849		4.48398693		4.82257718		 0.00006023		-0.00014871		-0.00018413
Si		2.92096725		-0.23960686		8.45873329		-0.00006023		 0.00014871		 0.00018413
Si		2.55126599		4.81450346		1.81807852		 0.00014009		-0.00024019		-0.00035073
Si		5.67526975		-0.57012339		11.46323195		-0.00014009		 0.00024019		 0.00035073
Mg		4.11326740		2.12218956		6.64065477		0.00000000		0.00000000		0.00000000
Mg		4.35351985		2.09335980		0.00000000		0.00000000		0.00000000		0.00000000
Mg		-0.24025246		0.02882977		6.64065477		0.00000000		0.00000000		0.00000000
Mg		0.00000000		0.00000000		0.00000000		0.00000000		0.00000000		0.00000000
O		0.32596158		1.07886988		4.97119438		 0.00005569		-0.00007954		-0.00028935
O		7.90057415		3.16551113		8.31011609		-0.00005569		 0.00007954		 0.00028935
O		8.50554849		0.09731858		1.66946132		 0.00020183		-0.00020327		-0.00090689
O		-0.27901369		4.14706055		11.61185009		-0.00020183		 0.00020327		 0.00090689
O		4.67948144		3.17222967		4.97119438		 0.00002898		-0.00014964		-0.00025924
O		3.54705430		1.07215134		8.31011609		-0.00002898		 0.00014964		 0.00025924
O		3.51506901		3.31196003		1.66946132		 0.00014777		-0.00016240		-0.00088074
O		4.71146579		0.93242098		11.61185009		-0.00014777		 0.00016240		 0.00088074
O		2.37027294		2.11790190		5.63791546		-0.00001810		-0.00019376		-0.00038168
O		5.85626279		2.12647911		7.64339407		 0.00001810		 0.00019376		 0.00038168
O		6.14849052		1.66451582		1.00273930		 0.00014806		 0.00004048		-0.00026830
O		2.07804522		2.57986519		12.27857117		-0.00014806		-0.00004048		 0.00026830
O		6.72379280		4.21126169		5.63791546		 0.00000506		-0.00019234		-0.00035277
O		1.50274294		0.03311932		7.64339407		-0.00000506		 0.00019234		 0.00035277
O		1.15801104		4.87915539		1.00273930		 0.00006974		 0.00004031		-0.00028555
O		7.06852469		-0.63477532		12.27857117		-0.00006974		-0.00004031		 0.00028555
O		-0.03355599		3.61066820		5.65518189		 0.00033390		 0.00007804		-0.00006492
O		8.26009173		0.63371281		7.62612858		-0.00033390		-0.00007804		 0.00006492
O		8.25906310		2.61555278		0.98547287		-0.00007646		-0.00010320		-0.00009868
O		-0.03252736		1.62882729		12.29583666		 0.00007646		 0.00010320		 0.00009868
O		4.95692349		0.39602769		5.65518189		 0.00031375		 0.00008593		-0.00005105
O		3.26961225		3.84835332		7.62612858		-0.00031375		-0.00008593		 0.00005105
O		3.90554325		0.52219298		0.98547287		-0.00019589		-0.00021454		-0.00000002
O		4.32099249		3.72218709		12.29583666		 0.00019589		 0.00021454		 0.00000002
O		1.08165178		2.93746762		3.35087466		 0.00017420		 0.00005801		-0.00010380
O		7.14488396		1.30691151		9.93043581		-0.00017420		-0.00005801		 0.00010380
O		7.27519669		2.19424328		3.28978104		 0.00029871		 0.00003361		-0.00025108
O		0.95133905		2.05013773		9.99152943		-0.00029871		-0.00003361		 0.00025108
O		6.07213220		-0.27717195		3.35087466		 0.00016726		 0.00001904		 0.00006269
O		2.15440354		4.52155202		9.93043581		-0.00016726		-0.00001904		-0.00006269
O		2.92167684		0.10088254		3.28978104		 0.00025950		 0.00007255		-0.00009962
O		5.30485890		4.14349753		9.99152943		-0.00025950		-0.00007255		 0.00009962
Ca		1.28565104		2.35687257		1.18761534		 0.00024842		-0.00008663		 0.00013087
Ca		6.94088375		1.88750750		12.09369607		-0.00024842		 0.00008663		-0.00013087
Ca		7.20661471		1.64635723		5.45304037		 0.00048150		 0.00037704		 0.00035913
Ca		1.01992103		2.59802284		7.82827010		-0.00048150		-0.00037704		-0.00035913
Ca		5.63917184		4.45023331		1.18761534		 0.00021158		-0.00008900		 0.00012140
Ca		2.58736390		-0.20585230		12.09369607		-0.00021158		 0.00008900		-0.00012140
Ca		2.21613523		4.86099774		5.45304037		 0.00047474		 0.00037864		 0.00035750
Ca		6.01040051		-0.61661673		7.82827010		-0.00047474		-0.00037864		-0.00035750
Ca		-0.71192605		4.94607821		3.32032832		 0.00035235		 0.00039321		 0.00002803
Ca		-0.40553942		0.41958257		9.96098309		-0.00035235		-0.00039321		-0.00002803
Ca		4.27855342		1.73143770		3.32032832		 0.00037766		 0.00039184		 0.00000317
Ca		3.94798043		2.51294331		9.96098309		-0.00037766		-0.00039184		-0.00000317
