# total energy = -14249.9637208 eV	

CRYSTAL	
PRIMVEC	
		7.72999998		-0.30919969		0.00000000	
		-0.30919969		7.72999998		0.00000000	
		0.00000000		0.00000000		5.00999736	
PRIMCOORD
   24 1	
Ca		2.49833550		1.21206387		2.55509973		 0.00006521		-0.00006521		-0.00068477	
Ca		4.92246401		6.20873565		2.55509973		-0.00006521		 0.00006521		-0.00068477	
Ca		1.10693613		5.12653596		2.45489994		 0.00046400		 0.00046400		 0.00035865	
Ca		6.31386339		2.29426355		2.45489994		-0.00046400		-0.00046400		 0.00035865	
Si		0.97088764		2.73951173		4.75949981		 0.00001046		-0.00001046		 0.00050524	
Si		6.44991187		4.68128779		4.75949981		-0.00001046		 0.00001046		 0.00050524	
Si		2.51688764		6.53648748		0.25049987		 0.00027257		 0.00027257		-0.00057498	
Si		4.90391188		0.88431204		0.25049987		-0.00027257		-0.00027257		-0.00057498	
Mg		0.00000000		0.00000000		0.00000000		0.00000000		0.00000000		-0.00049366	
Mg		3.71040015		3.71040015		0.00000000		0.00000000		0.00000000		-0.00049366	
O		3.86499999		-0.15459984		0.95189996		0.00000000		0.00000000		 0.00088320	
O		-0.15459984		3.86499999		4.05809971		0.00000000		0.00000000		-0.00061797	
O		0.97088764		2.73951173		1.30259962		 0.00004399		-0.00004399		 0.00042053	
O		6.44991187		4.68128779		1.30259962		-0.00004399		 0.00004399		 0.00042053	
O		2.51688764		6.53648748		3.70740005		-0.00025213		-0.00025213		-0.00057395	
O		4.90391188		0.88431204		3.70740005		 0.00025213		 0.00025213		-0.00057395	
O		0.56274374		1.36666371		4.05809971		-0.00059350		 0.00025015		-0.00002474	
O		6.85805577		6.05413581		4.05809971		 0.00059350		-0.00025015		-0.00002474	
O		1.10693613		7.05594342		0.95189996		 0.00025998		-0.00077291		 0.00047991	
O		6.31386339		0.36485610		0.95189996		-0.00025998		 0.00077291		 0.00047991	
O		3.03634358		5.12653596		0.95189996		-0.00077291		 0.00025998		 0.00047991	
O		4.38445593		2.29426355		0.95189996		 0.00077291		-0.00025998		 0.00047991	
O		2.34373566		3.14765563		4.05809971		-0.00025015		 0.00059350		-0.00002474	
O		5.07706386		4.27314389		4.05809971		 0.00025015		-0.00059350		-0.00002474	
