# total energy = -14247.0609133 eV	

CRYSTAL	
PRIMVEC	
		7.73000130		0.92759829		0.00000000	
		0.92759829		7.73000130		0.00000000	
		0.00000000		0.00000000		5.00999615	
PRIMCOORD
   24 1	
Ca		2.70859167		1.62020812		2.55509983		 0.00028209		-0.00028209		-0.00052520	
Ca		5.94900792		7.03739224		2.55509983		-0.00028209		 0.00028209		-0.00052520	
Ca		1.93559232		5.33679227		2.45490022		 0.00012794		 0.00012794		-0.00052566	
Ca		6.72200805		3.32080810		2.45490022		-0.00012794		-0.00012794		-0.00052566	
Si		1.41613572		2.91266407		4.75949985		-0.00006086		 0.00006086		 0.00010942	
Si		7.24146387		5.74493629		4.75949985		 0.00006086		-0.00006086		 0.00010942	
Si		3.58053640		6.98173635		0.25050020		-0.00008545		-0.00008545		-0.00006290	
Si		5.07706397		1.67586402		0.25050020		 0.00008545		 0.00008545		-0.00006290	
Mg		0.00000000		0.00000000		0.00000000		0.00000000		0.00000000		-0.00064300	
Mg		4.32879979		4.32879979		0.00000000		0.00000000		0.00000000		-0.00064300	
O		3.86499987		0.46379992		0.95189981		0.00000000		0.00000000		 0.00064180	
O		0.46379992		3.86499987		4.05810023		0.00000000		0.00000000		 0.00082981	
O		1.41613572		2.91266407		1.30259962		-0.00079192		 0.00079192		 0.00009041	
O		7.24146387		5.74493629		1.30259962		 0.00079192		-0.00079192		 0.00009041	
O		3.58053640		6.98173635		3.70739964		-0.00014422		-0.00014422		 0.00002849	
O		5.07706397		1.67586402		3.70739964		 0.00014422		 0.00014422		 0.00002849	
O		0.78536811		1.46560763		4.05810023		-0.00019953		-0.00003260		 0.00001054	
O		7.87223226		7.19199196		4.05810023		 0.00019953		 0.00003260		 0.00001054	
O		2.24479175		7.27856780		0.95189981		 0.00018147		-0.00019194		 0.00038578	
O		6.41280784		1.37903179		0.95189981		-0.00018147		 0.00019194		 0.00038578	
O		3.87736785		5.64599170		0.95189981		-0.00019194		 0.00018147		 0.00038578	
O		4.78023174		3.01160789		0.95189981		 0.00019194		-0.00018147		 0.00038578	
O		2.86319216		3.54343169		4.05810023		 0.00003260		 0.00019953		 0.00001054	
O		5.79440820		5.11416790		4.05810023		-0.00003260		-0.00019953		 0.00001054	
