# total energy = -13384.6187697 eV

CRYSTAL
PRIMVEC
		3.02805395		0.00000000		0.00000000
		-1.51402545		2.62237131		0.00000000
		0.00000000		0.00000000		18.99134838
PRIMECORD
   18 1
O		0.00000000		0.00000000		5.90163923		 0.00000010		 0.00000006		 0.00004950
O		0.00000000		0.00000000		13.08970977		-0.00000004		 0.00000007		-0.00004601
O		1.51402667		0.87412306		8.17956527		 0.00000002		 0.00000010		-0.00010035
O		0.00000000		1.74824672		10.81183471		 0.00000001		-0.00000003		-0.00009472
O		1.51402667		0.87412336		1.21226632		 0.00000002		-0.00000003		-0.00012419
O		0.00000000		1.74824703		17.77905795		0.00000000		-0.00000014		 0.00021448
O		0.00000000		1.74824703		3.48651014		 0.00000005		-0.00000002		-0.00015221
O		1.51402697		0.87412306		15.50483580		-0.00000002		-0.00000002		 0.00015590
H		1.51402667		0.87412336		9.14117693		 0.00000001		-0.00000001		 0.00006887
H		0.00000000		1.74824672		9.85012688		-0.00000001		 0.00000001		 0.00010743
H		1.51402667		0.87412367		0.24749877		-0.00000000		-0.00000003		 0.00012983
H		0.00000000		1.74824672		18.74386915		-0.00000000		 0.00000002		-0.00020868
Mg		0.00000000		1.74824764		7.11505744		-0.00000008		-0.00000017		 0.00004276
Mg		1.51402667		0.87412306		11.87628789		 0.00000002		 0.00000003		-0.00002596
Mg		0.00000000		0.00000000		2.27278785		-0.00000005		 0.00000004		 0.00044335
Mg		0.00000000		0.00000000		16.71856237		 0.00000003		 0.00000021		-0.00045660
Mg		1.51402697		0.87412336		4.69398263		-0.00000009		 0.00000002		-0.00011323
Mg		0.00000000		1.74824733		14.29736667		 0.00000001		-0.00000012		 0.00010983
