# total energy = -13383.9397426 eV

CRYSTAL
PRIMVEC
		3.12187264		0.00000305		-0.00000305
		-1.56093479		2.70361774		0.00000000
		-0.00002748		0.00000916		25.42140299
PRIMECORD
   18 1
O		-0.00000519		0.00000000		7.44090962		-0.00000038		 0.00000023		-0.00007052
O		-0.00001588		0.00001130		17.98053946		-0.00000077		-0.00000046		 0.00006366
O		1.56092014		0.90121538		9.69511722		 0.00000039		-0.00000024		 0.00007115
O		-0.00001923		1.80241916		15.72638102		 0.00000045		 0.00000006		-0.00002099
O		1.56092502		0.90121294		2.77407610		 0.00000090		-0.00000059		-0.00004779
O		-0.00001099		1.80241244		22.64714188		-0.00000108		 0.00000069		 0.00035990
O		0.00000366		1.80241061		5.02805563		-0.00000097		 0.00000028		 0.00010662
O		1.56090854		0.90121752		20.39330095		 0.00000127		-0.00000038		-0.00011164
H		1.56092624		0.90121202		10.65475938		-0.00000001		-0.00000002		 0.00003065
H		-0.00001588		1.80241244		14.76677030		-0.00000002		 0.00000018		-0.00008943
H		1.56093846		0.90120317		1.81448889		-0.00000014		 0.00000011		-0.00032240
H		-0.00002839		1.80242465		23.60688052		 0.00000021		-0.00000015		 0.00004434
Mg		-0.00001465		1.80242007		8.65768736		 0.00000060		-0.00000047		-0.00017445
Mg		1.56091983		0.90121355		16.76380111		-0.00000039		 0.00000031		 0.00016511
Mg		-0.00000550		0.00000000		3.81131850		-0.00000001		0.00000000		 0.00019186
Mg		-0.00001923		0.00000000		21.61000541		 0.00000009		 0.00000016		-0.00020410
Mg		1.56093571		0.90120256		6.23450934		-0.00000032		 0.00000064		-0.00004029
Mg		-0.00002137		1.80242526		19.18688540		 0.00000019		-0.00000038		 0.00004830
