# total energy = -13383.7051303 eV

CRYSTAL
PRIMVEC
		3.16618999		0.00000000		0.00000000
		-1.58309347		2.74200006		0.00000000
		0.00000611		0.00000916		25.92013191
PRIMECORD
   18 1
O		0.00000000		-0.00000672		7.59001570		 0.00000070		 0.00000024		-0.00036251
O		0.00000763		0.00001313		18.33005332		-0.00000048		-0.00000042		 0.00036710
O		1.58309683		0.91399249		9.82720862		-0.00000014		 0.00000029		-0.00039759
O		0.00000519		1.82801032		16.09272362		-0.00000002		 0.00000008		 0.00046510
O		1.58309652		0.91400256		2.94836790		-0.00000012		-0.00000024		 0.00017983
O		0.00000519		1.82801337		22.97202718		 0.00000001		-0.00000040		-0.00054492
O		0.00000000		1.82799689		5.18734621		-0.00000009		 0.00000003		 0.00007425
O		1.58309713		0.91400623		20.73286904		 0.00000043		 0.00000078		-0.00007431
H		1.58309713		0.91400409		10.78736308		-0.00000005		-0.00000025		 0.00049034
H		0.00000000		1.82800543		15.13258992		 0.00000009		 0.00000014		-0.00052481
H		1.58309377		0.91399890		1.98796615		 0.00000005		 0.00000004		-0.00010736
H		0.00000824		1.82800574		23.93225216		-0.00000009		 0.00000010		 0.00043098
Mg		0.00000000		1.82799414		8.80198313		-0.00000019		-0.00000022		-0.00002940
Mg		1.58309957		0.91401020		17.11802635		 0.00000012		 0.00000016		 0.00002575
Mg		0.00000000		0.00000000		3.97408584		 0.00000006		-0.00000021		 0.00020609
Mg		0.00000550		0.00001191		21.94617949		-0.00000011		-0.00000016		-0.00019599
Mg		1.58309560		0.91399341		6.38881315		-0.00000019		 0.00000021		-0.00009553
Mg		0.00000488		1.82801184		19.53133036		 0.00000005		-0.00000017		 0.00009300
