# total energy = -49428.2164242 eV	

CRYSTAL	
PRIMVEC	
		18.23299940		0.00000000		0.00000000	
		0.00000000		8.81910125		0.70552591	
		0.00000000		0.41441784		5.18019569	
PRIMCOORD
   80 1	
Mg		6.86107767		6.12758234		4.94909242		 0.00014224		 0.00022315		-0.00013615	
Mg		11.37192172		3.10593310		0.93663465		-0.00014224		-0.00022315		 0.00013615	
Mg		2.25542203		3.20232732		2.14154965		-0.00049175		-0.00094456		 0.00012193	
Mg		15.97757737		6.03118812		3.74417925		 0.00049175		 0.00094456		-0.00012193	
Mg		11.37192172		1.62163932		3.39141447		-0.00049175		 0.00094456		-0.00012193	
Mg		6.86107767		7.61187795		2.49431261		 0.00049175		-0.00094456		 0.00012193	
Mg		15.97757737		7.51548372		1.28939943		 0.00014224		-0.00022315		 0.00013615	
Mg		2.25542203		1.71803172		4.59632947		-0.00014224		 0.00022315		-0.00013615	
Mg		6.87201747		4.44540035		2.20290734		-0.00014992		 0.00025085		-0.00039457	
Mg		11.36098192		4.78811692		3.68282156		 0.00014992		-0.00025085		 0.00039457	
Mg		2.24448223		4.87837574		4.81106862		-0.00006924		 0.00003916		-0.00004378	
Mg		15.98851717		4.35513971		1.07465845		 0.00006924		-0.00003916		 0.00004378	
Mg		11.36098192		8.76469033		1.42742323		-0.00006924		-0.00003916		 0.00004378	
Mg		6.87201747		0.46882511		4.45830566		 0.00006924		 0.00003916		-0.00004378	
Mg		15.98851717		0.37856630		3.33005678		-0.00014992		-0.00025085		 0.00039457	
Mg		2.24448223		8.85494915		2.55567030		 0.00014992		 0.00025085		-0.00039457	
Si		4.95025934		3.03533857		0.50326725		-0.00016100		-0.00007722		 0.00030072	
Si		13.28274006		6.19817869		5.38246165		 0.00016100		 0.00007722		-0.00030072	
Si		4.16624036		6.03290931		3.31659718		-0.00026514		-0.00013293		-0.00006365	
Si		14.06675903		3.20060613		2.56913172		 0.00026514		 0.00013293		 0.00006365	
Si		13.28274006		7.61015675		2.92189468		-0.00026514		 0.00013293		 0.00006365	
Si		4.95025934		1.62335869		2.96383240		 0.00026514		-0.00013293		-0.00006365	
Si		14.06675903		1.78862807		5.02969687		-0.00016100		 0.00007722		-0.00030072	
Si		4.16624036		7.44488737		0.85603203		 0.00016100		-0.00007722		 0.00030072	
Si		8.63514851		3.30631012		4.37236260		 0.00012273		 0.00040485		 0.00007326	
Si		9.59785088		5.92720715		1.51336448		-0.00012273		-0.00040485		-0.00007326	
Si		0.48135118		5.96707360		2.01170152		-0.00017539		 0.00023747		 0.00020860	
Si		17.75164821		3.26644367		3.87402737		 0.00017539		-0.00023747		-0.00020860	
Si		9.59785088		7.67599246		4.22679215		-0.00017539		-0.00023747		-0.00020860	
Si		8.63514851		1.55752298		1.65893674		 0.00017539		 0.00023747		 0.00020860	
Si		17.75164821		1.51765652		1.16060152		 0.00012273		-0.00040485		-0.00007326	
Si		0.48135118		7.71585892		4.72512738		-0.00012273		 0.00040485		 0.00007326	
O		3.34575539		3.01875748		0.41650005		-0.00013791		-0.00046843		 0.00056909	
O		14.88724401		6.21475796		5.46922702		 0.00013791		 0.00046843		-0.00056909	
O		5.77074431		6.03572996		3.23138161		-0.00013274		 0.00056220		-0.00002387	
O		12.46225509		3.19778548		2.65434729		 0.00013274		-0.00056220		 0.00002387	
O		14.88724401		7.60733611		3.00711024		-0.00013274		-0.00056220		 0.00002387	
O		3.34575539		1.62618116		2.87861683		 0.00013274		 0.00056220		-0.00002387	
O		12.46225509		1.80520916		5.11646407		-0.00013791		 0.00046843		-0.00056909	
O		5.77074431		7.42830811		0.76926483		 0.00013791		-0.00046843		 0.00056909	
O		5.67775601		4.45294516		0.57755943		-0.00040155		 0.00035397		 0.00053461	
O		12.55524338		4.78057028		5.30816947		 0.00040155		-0.00035397		-0.00053461	
O		3.43874369		4.60900323		3.16356761		-0.00026755		-0.00028433		 0.00062376	
O		14.79425571		4.62451404		2.72216128		 0.00026755		 0.00028433		-0.00062376	
O		12.55524338		0.21496342		2.36939650		-0.00026755		 0.00028433		-0.00062376	
O		5.67775601		9.01855203		3.51633057		 0.00026755		-0.00028433		 0.00062376	
O		14.79425571		9.19012090		5.66093425		-0.00040155		-0.00035397		-0.00053461	
O		3.43874369		0.04339454		0.22479465		 0.00040155		 0.00035397		 0.00053461	
O		5.51548232		2.30616264		4.46683506		-0.00015860		 0.00022654		-0.00002356	
O		12.71751708		6.92735463		1.41889201		 0.00015860		-0.00022654		 0.00002356	
O		3.60101738		6.99531813		2.26844403		 0.00008111		-0.00033026		 0.00018089	
O		14.63198202		2.23819731		3.61728304		-0.00008111		 0.00033026		-0.00018089	
O		12.71751708		6.64774793		3.97004600		 0.00008111		 0.00033026		-0.00018089	
O		5.51548232		2.58576751		1.91568108		-0.00008111		-0.00033026		 0.00018089	
O		14.63198202		2.51780400		1.06612723		-0.00015860		-0.00022654		 0.00002356	
O		3.60101738		6.71571144		4.81959984		 0.00015860		 0.00022654		-0.00002356	
O		10.25059226		3.34154539		4.37466725		 0.00019695		-0.00031868		 0.00041719	
O		7.98240714		5.89197005		1.51106165		-0.00019695		 0.00031868		-0.00041719	
O		17.09890683		5.93175446		2.00835941		-0.00011002		 0.00029933		-0.00019441	
O		1.13409256		3.30176099		3.87736766		 0.00011002		-0.00029933		 0.00019441	
O		7.98240714		7.71131161		4.23013244		-0.00011002		-0.00029933		 0.00019441	
O		10.25059226		1.52220566		1.65559646		 0.00011002		 0.00029933		-0.00019441	
O		1.13409256		1.48242125		1.15829687		 0.00019695		 0.00031868		-0.00041719	
O		17.09890683		7.75109419		4.72743020		-0.00019695		-0.00031868		 0.00041719	
O		7.88394894		4.55086366		3.91553115		-0.00048103		-0.00027057		-0.00015420	
O		10.34905046		4.68265178		1.97019775		 0.00048103		 0.00027057		 0.00015420	
O		1.23255076		4.63292127		1.34857280		 0.00038740		 0.00034291		-0.00012472	
O		17.00044864		4.60059417		4.53715427		-0.00038740		-0.00034291		 0.00012472	
O		10.34905046		9.01014297		4.88991905		 0.00038740		-0.00034291		 0.00012472	
O		7.88394894		0.22337248		0.99580985		-0.00038740		 0.00034291		-0.00012472	
O		17.00044864		0.27310116		1.61743297		-0.00048103		 0.00027057		 0.00015420	
O		1.23255076		8.96041428		4.26829411		 0.00048103		-0.00027057		-0.00015420	
O		8.17385363		1.97049859		3.26130925		 0.00046500		 0.00040088		 0.00013263	
O		10.05914577		7.26301685		2.62441964		-0.00046500		-0.00040088		-0.00013263	
O		0.94264607		7.14117848		1.10143908		-0.00032098		-0.00067144		-0.00017171	
O		17.29035333		2.09233879		4.78428799		 0.00032098		 0.00067144		 0.00017171	
O		10.05914577		6.50188758		5.13705095		-0.00032098		 0.00067144		 0.00017171	
O		8.17385363		2.73162786		0.74867613		 0.00032098		-0.00067144		-0.00017171	
O		17.29035333		2.85346623		2.27165486		 0.00046500		-0.00040088		-0.00013263	
O		0.94264607		6.38004921		3.61407221		-0.00046500		 0.00040088		 0.00013263	
