# total energy = -49432.2947979 eV	

CRYSTAL	
PRIMVEC	
		18.23299940		0.00000000		0.00000000	
		0.00000000		8.81910125		0.35277207	
		0.00000000		0.20719981		5.18019569	
PRIMCOORD
   80 1	
Mg		6.86107767		5.94807846		4.71835017		 0.00070386		 0.00030484		-0.00023948	
Mg		11.37192172		3.07823171		0.81461395		-0.00070386		-0.00030484		 0.00023948	
Mg		2.25542203		3.12642699		2.01952713		 0.00043718		 0.00025902		 0.00063358	
Mg		15.97757737		5.89988135		3.51343517		-0.00043718		-0.00025902		-0.00063358	
Mg		11.37192172		1.49033073		3.33705460		 0.00043718		-0.00025902		-0.00063358	
Mg		6.86107767		7.53597762		2.19590952		-0.00043718		 0.00025902		 0.00063358	
Mg		15.97757737		7.48778050		0.99099634		 0.00070386		-0.00030484		 0.00023948	
Mg		2.25542203		1.53852784		4.54196778		-0.00070386		 0.00030484		-0.00023948	
Mg		6.87201747		4.37103341		2.03103944		-0.00000969		-0.00012871		 0.00073408	
Mg		11.36098192		4.65527676		3.50192468		 0.00000969		 0.00012871		-0.00073408	
Mg		2.24448223		4.70040525		4.63017174		 0.00012182		-0.00042813		-0.00025775	
Mg		15.98851717		4.32590309		0.90279238		-0.00012182		 0.00042813		 0.00025775	
Mg		11.36098192		8.73545189		1.07917477		 0.00012182		 0.00042813		 0.00025775	
Mg		6.87201747		0.29085645		4.45378935		-0.00012182		-0.00042813		-0.00025775	
Mg		15.98851717		0.24572613		3.32554229		-0.00000969		 0.00012871		-0.00073408	
Mg		2.24448223		8.78058221		2.20742365		 0.00000969		-0.00012871		 0.00073408	
Si		4.95025934		3.02485278		0.38269242		 0.00006361		 0.00021635		 0.00008960	
Si		13.28274006		6.00145557		5.15027169		-0.00006361		-0.00021635		-0.00008960	
Si		4.16624036		5.91881997		3.08440722		-0.00019597		-0.00029440		-0.00017273	
Si		14.06675903		3.10748838		2.44855689		 0.00019597		 0.00029440		 0.00017273	
Si		13.28274006		7.51703718		2.62493928		-0.00019597		 0.00029440		 0.00017273	
Si		4.95025934		1.50926934		2.90802483		 0.00019597		-0.00029440		-0.00017273	
Si		14.06675903		1.59190494		4.97388930		 0.00006361		-0.00021635		-0.00008960	
Si		4.16624036		7.43440340		0.55907481		-0.00006361		 0.00021635		 0.00008960	
Si		8.63514851		3.14093681		4.25333940		 0.00011429		 0.00011536		-0.00007353	
Si		9.59785088		5.88537153		1.27962472		-0.00011429		-0.00011536		 0.00007353	
Si		0.48135118		5.90530567		1.77795812		-0.00009291		 0.00023443		-0.00017635	
Si		17.75164821		3.12100450		3.75500418		 0.00009291		-0.00023443		 0.00017635	
Si		9.59785088		7.53055330		3.93138657		-0.00009291		-0.00023443		 0.00017635	
Si		8.63514851		1.49575505		1.60157755		 0.00009291		 0.00023443		-0.00017635	
Si		17.75164821		1.47582091		1.10324233		 0.00011429		-0.00011536		 0.00007353	
Si		0.48135118		7.55048744		4.42972179		-0.00011429		 0.00011536		-0.00007353	
O		3.34575539		3.01171225		0.29631359		-0.00031569		 0.00004331		 0.00004411	
O		14.88724401		6.01459609		5.23665053		 0.00031569		-0.00004331		-0.00004411	
O		5.77074431		5.92508118		2.99880329		 0.00003309		 0.00018588		 0.00003552	
O		12.46225509		3.10122534		2.53416083		-0.00003309		-0.00018588		-0.00003552	
O		14.88724401		7.51077596		2.71054139		 0.00003309		-0.00018588		-0.00003552	
O		3.34575539		1.51553238		2.82242272		-0.00003309		 0.00018588		 0.00003552	
O		12.46225509		1.60504547		5.06026814		-0.00031569		-0.00004331		-0.00004411	
O		5.77074431		7.42126288		0.47269598		 0.00031569		 0.00004331		 0.00004411	
O		5.67775601		4.44403652		0.40015417		-0.00023092		 0.00007077		 0.00018178	
O		12.55524338		4.58227365		5.13280995		 0.00023092		-0.00007077		-0.00018178	
O		3.43874369		4.49648921		2.98820809		-0.00022356		-0.00013386		-0.00015859	
O		14.79425571		4.52981913		2.54475602		 0.00022356		 0.00013386		 0.00015859	
O		12.55524338		0.12026851		2.36837363		-0.00022356		 0.00013386		 0.00015859	
O		5.67775601		8.90603801		3.16459048		 0.00022356		-0.00013386		-0.00015859	
O		14.79425571		8.99182245		5.30919234		-0.00023092		-0.00007077		-0.00018178	
O		3.43874369		0.03448590		0.22377178		 0.00023092		 0.00007077		 0.00018178	
O		5.51548232		2.13376416		4.38838029		 0.00026794		 0.00039067		-0.00046095	
O		12.71751708		6.89254236		1.14458383		-0.00026794		-0.00039067		 0.00046095	
O		3.60101738		6.92652502		1.99413585		 0.00009271		-0.00016528		-0.00009441	
O		14.63198202		2.09978332		3.53882827		-0.00009271		 0.00016528		 0.00009441	
O		12.71751708		6.50933212		3.71521066		 0.00009271		 0.00016528		 0.00009441	
O		5.51548232		2.51697440		1.81775346		-0.00009271		-0.00016528		-0.00009441	
O		14.63198202		2.48299356		0.96820144		 0.00026794		-0.00039067		 0.00046095	
O		3.60101738		6.54331478		4.56476268		-0.00026794		 0.00039067		-0.00046095	
O		10.25059226		3.17619214		4.25423282		-0.00002077		-0.00009558		 0.00023618	
O		7.98240714		5.85011438		1.27873130		 0.00002077		 0.00009558		-0.00023618	
O		17.09890683		5.87000658		1.77602907		-0.00025653		 0.00018124		-0.00069850	
O		1.13409256		3.15630176		3.75693323		 0.00025653		-0.00018124		 0.00069850	
O		7.98240714		7.56585056		3.93331562		-0.00025653		-0.00018124		 0.00069850	
O		10.25059226		1.46045778		1.59964850		 0.00025653		 0.00018124		-0.00069850	
O		1.13409256		1.44056558		1.10234891		-0.00002077		 0.00009558		-0.00023618	
O		17.09890683		7.58574276		4.43061521		 0.00002077		-0.00009558		 0.00023618	
O		7.88394894		4.40788960		3.74493409		-0.00015086		 0.00017831		-0.00017855	
O		10.34905046		4.61841875		1.78802820		 0.00015086		-0.00017831		 0.00017855	
O		1.23255076		4.59355258		1.16640508		-0.00023359		 0.00014942		-0.00023057	
O		17.00044864		4.43275576		4.36655903		 0.00023359		-0.00014942		 0.00023057	
O		10.34905046		8.84230638		4.54294142		-0.00023359		-0.00014942		 0.00023057	
O		7.88394894		0.18400378		0.99002269		 0.00023359		 0.00014942		-0.00023057	
O		17.00044864		0.20886812		1.61164764		-0.00015086		-0.00017831		 0.00017855	
O		1.23255076		8.81744022		3.92131648		 0.00015086		 0.00017831		-0.00017855	
O		8.17385363		1.84555332		3.19248515		-0.00001037		-0.00021830		 0.00010086	
O		10.05914577		7.18075503		2.34047897		 0.00001037		 0.00021830		-0.00010086	
O		0.94264607		7.11983493		0.81750023		 0.00018664		-0.00025618		-0.00046449	
O		17.29035333		1.90647159		4.71546389		-0.00018664		 0.00025618		 0.00046449	
O		10.05914577		6.31602221		4.89184628		 0.00018664		 0.00025618		 0.00046449	
O		8.17385363		2.71028613		0.64111784		-0.00018664		-0.00025618		-0.00046449	
O		17.29035333		2.77120441		2.16409658		-0.00001037		 0.00021830		-0.00010086	
O		0.94264607		6.25510211		3.36886754		 0.00001037		-0.00021830		 0.00010086	
