# total energy = -49432.2947979 eV	

CRYSTAL	
PRIMVEC	
		18.23299940		0.00000000		0.00000000	
		0.00000000		8.81910125		-0.35277207	
		0.00000000		-0.20719981		5.18019569	
PRIMCOORD
   80 1	
Mg		6.86107767		5.58906888		4.25686384		-0.00043715		-0.00025903		 0.00063361	
Mg		11.37192172		3.02282344		0.57057254		 0.00043715		 0.00025903		-0.00063361	
Mg		2.25542203		2.97462633		1.77548572		-0.00070382		-0.00030482		-0.00023948	
Mg		15.97757737		5.63726599		3.05195066		 0.00070382		 0.00030482		 0.00023948	
Mg		11.37192172		1.22771537		3.22833123		-0.00070382		 0.00030482		 0.00023948	
Mg		6.86107767		7.38417696		1.59910333		 0.00070382		-0.00030482		-0.00023948	
Mg		15.97757737		7.43237224		0.39419015		-0.00043715		 0.00025903		-0.00063361	
Mg		2.25542203		1.17951826		4.43324623		 0.00043715		-0.00025903		 0.00063361	
Mg		6.87201747		4.22229954		1.68730729		-0.00012185		 0.00042813		-0.00025773	
Mg		11.36098192		4.38959278		3.14012909		 0.00012185		-0.00042813		 0.00025773	
Mg		2.24448223		4.34446428		4.26837615		 0.00000971		 0.00012876		 0.00073408	
Mg		15.98851717		4.26742804		0.55906023		-0.00000971		-0.00012876		-0.00073408	
Mg		11.36098192		8.67697866		0.38267784		 0.00000971		-0.00012876		-0.00073408	
Mg		6.87201747		-0.06508634		4.44475854		-0.00000971		 0.00012876		 0.00073408	
Mg		15.98851717		-0.01995602		3.31651148		-0.00012185		-0.00042813		 0.00025773	
Mg		2.24448223		8.63184834		1.51092490		 0.00012185		 0.00042813		-0.00025773	
Si		4.95025934		3.00388300		0.14154277		 0.00019609		 0.00029422		-0.00017272	
Si		13.28274006		5.60800932		4.68589361		-0.00019609		-0.00029422		 0.00017272	
Si		4.16624036		5.69064310		2.62002914		-0.00006370		-0.00021632		 0.00008960	
Si		14.06675903		2.92124923		2.20740724		 0.00006370		 0.00021632		-0.00008960	
Si		13.28274006		7.33079803		2.03102486		-0.00006370		 0.00021632		-0.00008960	
Si		4.95025934		1.28109247		2.79641153		 0.00006370		-0.00021632		 0.00008960	
Si		14.06675903		1.19845870		4.86227417		 0.00019609		-0.00029422		 0.00017272	
Si		4.16624036		7.41343363		-0.03483962		-0.00019609		 0.00029422		-0.00017272	
Si		8.63514851		2.81019203		4.01529483		 0.00009268		-0.00023430		-0.00017645	
Si		9.59785088		5.80170030		0.81214155		-0.00009268		 0.00023430		 0.00017645	
Si		0.48135118		5.78176798		1.31047678		-0.00011416		-0.00011535		-0.00007354	
Si		17.75164821		2.83012434		3.51695961		 0.00011416		 0.00011535		 0.00007354	
Si		9.59785088		7.23967497		3.34057722		-0.00011416		 0.00011535		 0.00007354	
Si		8.63514851		1.37221736		1.48685734		 0.00011416		-0.00011535		-0.00007354	
Si		17.75164821		1.39215150		0.98852212		 0.00009268		 0.00023430		 0.00017645	
Si		0.48135118		7.21974265		3.83891244		-0.00009268		-0.00023430		-0.00017645	
O		3.34575539		2.99762179		0.05594067		-0.00003316		-0.00018586		 0.00003554	
O		14.88724401		5.61427053		4.77149572		 0.00003316		 0.00018586		-0.00003554	
O		5.77074431		5.70378362		2.53364848		 0.00031573		-0.00004331		 0.00004411	
O		12.46225509		2.90810870		2.29378608		-0.00031573		 0.00004331		-0.00004411	
O		14.88724401		7.31765933		2.11740369		 0.00031573		 0.00004331		-0.00004411	
O		3.34575539		1.29423482		2.71003087		-0.00031573		-0.00004331		 0.00004411	
O		12.46225509		1.20471991		4.94787811		-0.00003316		 0.00018586		-0.00003554	
O		5.77074431		7.40717241		-0.12044172		 0.00003316		-0.00018586		 0.00003554	
O		5.67775601		4.42621558		0.04534365		 0.00022357		 0.00013398		-0.00015865	
O		12.55524338		4.18567674		4.78209274		-0.00022357		-0.00013398		 0.00015865	
O		3.43874369		4.27146118		2.63748906		 0.00023089		-0.00007083		 0.00018175	
O		14.79425571		4.34043115		2.18994550		-0.00023089		 0.00007083		-0.00018175	
O		12.55524338		-0.06911948		2.36632789		 0.00023089		 0.00007083		-0.00018175	
O		5.67775601		8.68100998		2.46110849		-0.00023089		-0.00007083		 0.00018175	
O		14.79425571		8.59522736		4.60571035		 0.00022357		-0.00013398		 0.00015865	
O		3.43874369		0.01666496		0.22172604		-0.00022357		 0.00013398		-0.00015865	
O		5.51548232		1.78897085		4.23147256		-0.00009272		 0.00016534		-0.00009432	
O		12.71751708		6.82292148		0.59596382		 0.00009272		-0.00016534		 0.00009432	
O		3.60101738		6.78893881		1.44551766		-0.00026794		-0.00039069		-0.00046099	
O		14.63198202		1.82295351		3.38191872		 0.00026794		 0.00039069		 0.00046099	
O		12.71751708		6.23250231		3.20553633		-0.00026794		 0.00039069		 0.00046099	
O		5.51548232		2.37938819		1.62189823		 0.00026794		-0.00039069		-0.00046099	
O		14.63198202		2.41337085		0.77234621		-0.00009272		-0.00016534		 0.00009432	
O		3.60101738		6.19852147		4.05509017		 0.00009272		 0.00016534		-0.00009432	
O		10.25059226		2.84548929		4.01336578		 0.00025661		-0.00018125		-0.00069851	
O		7.98240714		5.76640303		0.81407060		-0.00025661		 0.00018125		 0.00069851	
O		17.09890683		5.74651083		1.31136837		 0.00002069		 0.00009554		 0.00023617	
O		1.13409256		2.86538149		3.51606619		-0.00002069		-0.00009554		-0.00023617	
O		7.98240714		7.27493029		3.33968562		 0.00002069		-0.00009554		-0.00023617	
O		10.25059226		1.33696021		1.48775076		-0.00002069		 0.00009554		 0.00023617	
O		1.13409256		1.35685241		0.99045117		 0.00025661		 0.00018125		 0.00069851	
O		17.09890683		7.25503809		3.83698339		-0.00025661		-0.00018125		-0.00069851	
O		7.88394894		4.12194329		3.40374180		 0.00023366		-0.00014961		-0.00023050	
O		10.34905046		4.48994903		1.42369459		-0.00023366		 0.00014961		 0.00023050	
O		1.23255076		4.51481337		0.80207147		 0.00015080		-0.00017827		-0.00017855	
O		17.00044864		4.09707713		4.02536492		-0.00015080		 0.00017827		 0.00017855	
O		10.34905046		8.50662957		3.84898253		 0.00015080		 0.00017827		 0.00017855	
O		7.88394894		0.10526458		0.97845386		-0.00015080		-0.00017827		-0.00017855	
O		17.00044864		0.08039841		1.60007697		 0.00023366		 0.00014961		 0.00023050	
O		1.23255076		8.53149391		3.22735941		-0.00023366		-0.00014961		-0.00023050	
O		8.17385363		1.59565912		3.05483512		-0.00018661		 0.00025611		-0.00046451	
O		10.05914577		7.01623138		1.77259944		 0.00018661		-0.00025611		 0.00046451	
O		0.94264607		7.07715148		0.24962070		 0.00001037		 0.00021832		 0.00010087	
O		17.29035333		1.53474084		4.57781568		-0.00001037		-0.00021832		-0.00010087	
O		10.05914577		5.94429147		4.40143329		 0.00001037		-0.00021832		-0.00010087	
O		8.17385363		2.66760086		0.42600309		-0.00001037		 0.00021832		 0.00010087	
O		17.29035333		2.60668258		1.94898183		-0.00018661		-0.00025611		 0.00046451	
O		0.94264607		6.00520974		2.87845455		 0.00018661		 0.00025611		-0.00046451	
