# total energy = -18516.0792553 eV

CRYSTAL
PRIMVEC
		7.02599999		0.00000000		0.00000000
		0.00000000		6.38369712		0.00000000
		-0.43440353		0.00000000		4.23980456
PRIMECORD
   30 1
Mg		0.16677405		1.59592498		2.28101478		-0.00020570		0.00000000		-0.00027886
Mg		6.42482381		4.78777495		1.95878978		 0.00020570		0.00000000		 0.00027886
Mg		4.73063390		1.59592498		3.88790033		-0.00035389		0.00000000		 0.00060935
Mg		1.86096467		4.78777495		0.35190424		 0.00035389		0.00000000		-0.00060935
Mg		2.80620688		1.59592498		0.17807186		-0.00011764		0.00000000		-0.00015365
Mg		3.78539099		4.78777495		4.06173200		 0.00011764		0.00000000		 0.00015365
Si		0.00000000		0.00000000		0.00000000		0.00000000		0.00000000		0.00000000
Si		0.00000000		3.19184997		0.00000000		0.00000000		0.00000000		0.00000000
Si		2.07748702		3.20461691		2.35309100		 0.00088525		 0.00024236		-0.00004298
Si		4.51411084		3.17908302		1.88671285		-0.00088525		-0.00024236		 0.00004298
Si		4.51411084		0.01276694		1.88671285		-0.00088525		 0.00024236		 0.00004298
Si		2.07748702		6.37093299		2.35309100		 0.00088525		-0.00024236		-0.00004298
O		5.50377634		3.57487165		0.59357334		 0.00049704		 0.00034631		-0.00037941
O		1.08782223		2.80882828		3.64623192		-0.00049704		-0.00034631		 0.00037941
O		1.08782223		0.38302169		3.64623192		-0.00049704		 0.00034631		 0.00037941
O		5.50377634		6.00067824		0.59357334		 0.00049704		-0.00034631		-0.00037941
O		5.86321666		2.81521210		2.77707216		 0.00016451		-0.00002584		 0.00015997
O		0.72838120		3.56848783		1.46273310		-0.00016451		 0.00002584		-0.00015997
O		0.72838120		6.00706207		1.46273310		-0.00016451		-0.00002584		-0.00015997
O		5.86321666		0.37663786		2.77707216		 0.00016451		 0.00002584		 0.00015997
O		1.96359767		1.59592498		1.81887612		-0.00007381		0.00000000		-0.00021029
O		4.62800090		4.78777495		2.42092774		 0.00007381		0.00000000		 0.00021029
O		3.11234796		3.54295394		1.03027226		-0.00027985		-0.00011444		-0.00006801
O		3.47924990		2.84074669		3.20953230		 0.00027985		 0.00011444		 0.00006801
O		3.47924990		0.35110397		3.20953230		 0.00027985		-0.00011444		 0.00006801
O		3.11234796		6.03259666		1.03027226		-0.00027985		 0.00011444		-0.00006801
O		4.38877614		1.59592498		1.32705893		-0.00022444		0.00000000		-0.00003582
O		2.20282173		4.78777495		2.91274633		 0.00022444		0.00000000		 0.00003582
O		6.82103681		1.59592498		0.49181719		-0.00035005		0.00000000		-0.00028958
O		-0.22943895		4.78777495		3.74798667		 0.00035005		0.00000000		 0.00028958
