# total energy = -18518.4514189 eV

CRYSTAL
PRIMVEC
		7.02599999		0.00000000		0.00000000
		0.00000000		6.53940031		0.00000000
		-0.43440353		0.00000000		4.23980456
PRIMECORD
   30 1
Mg		0.16677405		1.63484973		2.28101478		-0.00002472		0.00000000		-0.00053959
Mg		6.42482381		4.90454988		1.95878978		 0.00002472		0.00000000		 0.00053959
Mg		4.73063390		1.63484973		3.88790033		 0.00015032		0.00000000		 0.00007371
Mg		1.86096467		4.90454988		0.35190424		-0.00015032		0.00000000		-0.00007371
Mg		2.80620688		1.63484973		0.17807186		-0.00030946		0.00000000		 0.00028336
Mg		3.78539099		4.90454988		4.06173200		 0.00030946		0.00000000		-0.00028336
Si		0.00000000		0.00000000		0.00000000		0.00000000		0.00000000		0.00000000
Si		0.00000000		3.26970015		0.00000000		0.00000000		0.00000000		0.00000000
Si		2.07748702		3.28277905		2.35309100		-0.00073292		-0.00007191		 0.00040194
Si		4.51411084		3.25662125		1.88671285		 0.00073292		 0.00007191		-0.00040194
Si		4.51411084		0.01307890		1.88671285		 0.00073292		-0.00007191		-0.00040194
Si		2.07748702		6.52632211		2.35309100		-0.00073292		 0.00007191		 0.00040194
O		5.50377634		3.66206431		0.59357334		-0.00036927		 0.00035176		-0.00004504
O		1.08782223		2.87733599		3.64623192		 0.00036927		-0.00035176		 0.00004504
O		1.08782223		0.39236416		3.64623192		 0.00036927		 0.00035176		 0.00004504
O		5.50377634		6.14703615		0.59357334		-0.00036927		-0.00035176		-0.00004504
O		5.86321666		2.88387579		2.77707216		-0.00018623		 0.00004293		-0.00051796
O		0.72838120		3.65552521		1.46273310		 0.00018623		-0.00004293		 0.00051796
O		0.72838120		6.15357524		1.46273310		 0.00018623		 0.00004293		 0.00051796
O		5.86321666		0.38582506		2.77707216		-0.00018623		-0.00004293		-0.00051796
O		1.96359767		1.63484973		1.81887612		 0.00030408		0.00000000		 0.00076659
O		4.62800090		4.90454988		2.42092774		-0.00030408		0.00000000		-0.00076659
O		3.11234796		3.62936671		1.03027226		-0.00037121		 0.00008274		-0.00007581
O		3.47924990		2.91003289		3.20953230		 0.00037121		-0.00008274		 0.00007581
O		3.47924990		0.35966726		3.20953230		 0.00037121		 0.00008274		 0.00007581
O		3.11234796		6.17973304		1.03027226		-0.00037121		-0.00008274		-0.00007581
O		4.38877614		1.63484973		1.32705893		-0.00066301		0.00000000		 0.00018494
O		2.20282173		4.90454988		2.91274633		 0.00066301		0.00000000		-0.00018494
O		6.82103681		1.63484973		0.49181719		-0.00060140		0.00000000		-0.00033972
O		-0.22943895		4.90454988		3.74798667		 0.00060140		0.00000000		 0.00033972
