# total energy = -18520.2380586 eV

CRYSTAL
PRIMVEC
		7.02599999		0.00000000		0.00000000
		0.00000000		6.69510349		0.00000000
		-0.43440353		0.00000000		4.23980456
PRIMECORD
   30 1
Mg		0.16677405		1.67377517		2.28101478		 0.00001403		0.00000000		 0.00001054
Mg		6.42482381		5.02132481		1.95878978		-0.00001403		0.00000000		-0.00001054
Mg		4.73063390		1.67377517		3.88790033		-0.00030476		0.00000000		-0.00053582
Mg		1.86096467		5.02132481		0.35190424		 0.00030476		0.00000000		 0.00053582
Mg		2.80620688		1.67377517		0.17807186		 0.00009292		0.00000000		 0.00010492
Mg		3.78539099		5.02132481		4.06173200		-0.00009292		0.00000000		-0.00010492
Si		0.00000000		0.00000000		0.00000000		0.00000000		0.00000000		-0.00000000
Si		0.00000000		3.34755034		0.00000000		0.00000000		-0.00000000		0.00000000
Si		2.07748702		3.36093979		2.35309100		 0.00003357		-0.00006100		 0.00017919
Si		4.51411084		3.33416019		1.88671285		-0.00003357		 0.00006100		-0.00017919
Si		4.51411084		0.01339015		1.88671285		-0.00003357		-0.00006100		-0.00017919
Si		2.07748702		6.68170983		2.35309100		 0.00003357		 0.00006100		 0.00017919
O		5.50377634		3.74925627		0.59357334		 0.00003497		 0.00020776		-0.00038223
O		1.08782223		2.94584371		3.64623192		-0.00003497		-0.00020776		 0.00038223
O		1.08782223		0.40170593		3.64623192		-0.00003497		 0.00020776		 0.00038223
O		5.50377634		6.29339405		0.59357334		 0.00003497		-0.00020776		-0.00038223
O		5.86321666		2.95253878		2.77707216		 0.00036576		-0.00008344		-0.00017348
O		0.72838120		3.74256119		1.46273310		-0.00036576		 0.00008344		 0.00017348
O		0.72838120		6.30008913		1.46273310		-0.00036576		-0.00008344		 0.00017348
O		5.86321666		0.39501085		2.77707216		 0.00036576		 0.00008344		-0.00017348
O		1.96359767		1.67377517		1.81887612		 0.00002698		-0.00000000		 0.00054763
O		4.62800090		5.02132481		2.42092774		-0.00002698		-0.00000000		-0.00054763
O		3.11234796		3.71578089		1.03027226		-0.00008586		-0.00001722		 0.00022893
O		3.47924990		2.97931979		3.20953230		 0.00008586		 0.00001722		-0.00022893
O		3.47924990		0.36823125		3.20953230		 0.00008586		-0.00001722		-0.00022893
O		3.11234796		6.32687013		1.03027226		-0.00008586		 0.00001722		 0.00022893
O		4.38877614		1.67377517		1.32705893		-0.00019252		0.00000000		 0.00043387
O		2.20282173		5.02132481		2.91274633		 0.00019252		0.00000000		-0.00043387
O		6.82103681		1.67377517		0.49181719		-0.00014083		-0.00000000		-0.00031701
O		-0.22943895		5.02132481		3.74798667		 0.00014083		-0.00000000		 0.00031701
