# total energy = -49448.0689328 eV

CRYSTAL
PRIMVEC
		5.16188305		0.00000000		0.00000000
		0.00000509		14.14303495		0.00000000
		0.00000000		0.00000000		8.82489206
PRIMECORD
   70 1
Si		2.58094204		0.00000000		0.00000000		 0.00000002		-0.00000000		 0.00000003
Si		0.00000000		7.07151799		4.41244654		-0.00000001		-0.00000000		-0.00000001
Si		2.50980088		5.32360280		0.00000000		-0.00028766		-0.00014450		-0.00000011
Si		2.65208726		8.81943469		0.00000000		 0.00028771		 0.00014447		 0.00000010
Si		0.07114421		12.39512283		4.41244654		 0.00029291		-0.00015346		 0.00000006
Si		5.09074393		1.74791467		4.41244705		-0.00029308		 0.00015349		-0.00000013
Mg		0.87159331		2.46015226		0.00000000		 0.00035290		 0.00007294		 0.00000001
Mg		4.29029483		11.68288473		0.00000000		-0.00035291		-0.00007292		-0.00000001
Mg		1.70935178		9.53167126		4.41244654		-0.00035310		 0.00006993		 0.00000001
Mg		3.45253636		4.61136573		4.41244654		 0.00035310		-0.00006989		 0.00000001
Mg		0.81510199		4.56969220		2.85613097		-0.00025204		 0.00012628		 0.00031425
Mg		4.34678666		9.57334530		5.96876210		 0.00025202		-0.00012629		-0.00031427
Mg		4.34678666		9.57334530		2.85613097		 0.00025205		-0.00012632		 0.00031427
Mg		0.81510199		4.56969220		5.96876261		-0.00025206		 0.00012634		-0.00031426
Mg		1.76584514		11.64121120		1.55631556		 0.00025125		 0.00012340		-0.00031515
Mg		3.39604352		2.50182630		7.26857802		-0.00025125		-0.00012335		 0.00031516
Mg		3.39604352		2.50182630		1.55631607		-0.00025126		-0.00012343		-0.00031518
Mg		1.76584514		11.64121120		7.26857751		 0.00025127		 0.00012346		 0.00031514
Mg		2.58094407		7.07151849		2.84033857		 0.00000001		-0.00000001		-0.00029797
Mg		2.58094407		7.07151849		5.98455502		-0.00000001		-0.00000002		 0.00029800
Mg		0.00000000		0.00000000		1.57210899		 0.00000002		 0.00000005		 0.00029687
Mg		0.00000000		0.00000000		7.25278510		 0.00000002		-0.00000002		-0.00029689
Mg		2.58094204		0.00000000		3.01282036		 0.00000002		 0.00000002		 0.00035692
Mg		2.58094254		0.00000000		5.81207322		-0.00000002		-0.00000006		-0.00035696
Mg		0.00000000		7.07151799		1.39962668		-0.00000005		 0.00000001		-0.00035848
Mg		0.00000000		7.07151799		7.42526639		-0.00000002		-0.00000003		 0.00035851
O		1.71868116		5.84956327		1.37809598		-0.00035108		 0.00033612		-0.00031316
O		3.44320698		8.29347372		7.44679760		 0.00035108		-0.00033609		 0.00031320
O		3.44320698		8.29347372		1.37809598		 0.00035103		-0.00033608		-0.00031329
O		1.71868116		5.84956327		7.44679760		-0.00035104		 0.00033609		 0.00031326
O		0.86226648		12.92108074		3.03435056		 0.00035077		 0.00033714		 0.00031401
O		4.29962218		1.22195675		5.79054302		-0.00035074		-0.00033712		-0.00031404
O		4.29962218		1.22195675		3.03435056		-0.00035074		-0.00033717		 0.00031412
O		0.86226648		12.92108074		5.79054302		 0.00035078		 0.00033715		-0.00031407
O		2.53894991		3.66197178		0.00000000		 0.00003476		-0.00036694		-0.00000000
O		2.62293824		10.48106572		0.00000000		-0.00003475		 0.00036696		-0.00000002
O		0.04199620		10.73348671		4.41244654		-0.00003559		-0.00035980		-0.00000001
O		5.11989194		3.40955027		4.41244705		 0.00003564		 0.00035975		 0.00000006
O		4.09622788		5.84664348		0.00000000		-0.00019534		 0.00007510		 0.00000009
O		1.06566078		8.29639402		0.00000000		 0.00019532		-0.00007503		-0.00000005
O		3.64660536		12.91816095		4.41244654		 0.00019126		 0.00007634		-0.00000001
O		1.51528279		1.22487603		4.41244705		-0.00019115		-0.00007622		 0.00000006
O		1.83631297		1.03497679		1.27884454		 0.00008568		-0.00022506		-0.00024922
O		3.32557569		13.10806071		7.54604904		-0.00008570		 0.00022502		 0.00024920
O		3.32557569		13.10806071		1.27884403		-0.00008572		 0.00022502		-0.00024923
O		1.83631297		1.03497679		7.54604904		 0.00008568		-0.00022510		 0.00024915
O		0.74463212		8.10649426		3.13360200		-0.00008602		-0.00022485		 0.00024982
O		4.41725653		6.03654324		5.69129158		 0.00008606		 0.00022484		-0.00024984
O		4.41725653		6.03654324		3.13360200		 0.00008607		 0.00022480		 0.00024984
O		0.74463212		8.10649426		5.69129108		-0.00008608		-0.00022489		-0.00024978
O		5.06433860		3.57509166		1.39635980		-0.00009896		-0.00025684		 0.00026793
O		0.09754954		10.56794533		7.42853378		 0.00009883		 0.00025731		-0.00026818
O		0.09755005		10.56794482		1.39635878		 0.00009811		 0.00025912		 0.00026936
O		5.06433860		3.57509267		7.42853480		-0.00009775		-0.00026001		-0.00026997
O		2.67848904		10.64660099		3.01608216		 0.00010753		-0.00023205		-0.00025331
O		2.48339911		3.49643651		5.80881142		-0.00010788		 0.00023121		 0.00025278
O		2.48339911		3.49643651		3.01608267		-0.00010755		 0.00023199		-0.00025322
O		2.67848954		10.64660099		5.80881092		 0.00010732		-0.00023264		 0.00025371
O		1.01049779		13.02574069		0.00000000		 0.00018903		 0.00026382		 0.00000003
O		4.15139086		1.11729681		0.00000000		-0.00018917		-0.00026382		-0.00000003
O		1.57045035		5.95422321		4.41244654		-0.00018900		 0.00026319		-0.00000005
O		3.59143830		8.18881429		4.41244654		 0.00018913		-0.00026313		-0.00000000
H		4.75344294		4.36003793		0.89621328		-0.00030638		 0.00081602		 0.00014286
H		0.40844520		9.78299956		7.92868030		 0.00030653		-0.00081643		-0.00014261
H		0.40844520		9.78300007		0.89621328		 0.00030718		-0.00081806		 0.00014154
H		4.75344345		4.36003692		7.92867979		-0.00030752		 0.00081889		-0.00014101
H		2.98939029		11.43156203		3.51623733		 0.00029786		 0.00079427		-0.00015672
H		2.17249785		2.71147496		5.30865575		-0.00029755		-0.00079350		 0.00015725
H		2.17249785		2.71147547		3.51623784		-0.00029782		-0.00079415		-0.00015683
H		2.98939029		11.43156203		5.30865575		 0.00029807		 0.00079478		 0.00015642
