# total energy = -14250.0819792 eV

CRYSTAL
PRIMVEC
		8.02762033		0.00000000		0.00000000
		0.00000000		8.02761260		0.00000000
		0.00000000		0.00000000		5.16465254
PRIMECORD
   24 1
Ca		2.58634896		1.42745888		2.53978731		 0.00003239		-0.00003257		 0.00016542
Ca		5.44126982		6.60015835		2.53978731		-0.00003239		 0.00003258		 0.00016540
Ca		1.42746120		5.44126672		2.62486446		-0.00003229		-0.00003212		-0.00016348
Ca		6.60015758		2.58635128		2.62486446		 0.00003228		 0.00003211		-0.00016352
Si		1.12469566		2.88911373		4.79465301		 0.00038618		-0.00038746		-0.00024512
Si		6.90292312		5.13850350		4.79465301		-0.00038622		 0.00038744		-0.00024508
Si		2.88911373		6.90292080		0.37000649		-0.00038481		-0.00038375		 0.00022804
Si		5.13850505		1.12469643		0.37000649		 0.00038486		 0.00038380		 0.00022861
Mg		0.00000000		0.00000000		0.00000000		0.00000000		-0.00000003		-0.00000060
Mg		4.01380939		4.01380862		0.00000000		 0.00000001		 0.00000001		-0.00000064
O		4.01380862		0.00000000		0.94866423		 0.00000005		 0.00000005		-0.00085633
O		0.00000000		4.01380784		4.21598831		-0.00000001		-0.00000000		 0.00085768
O		1.17373864		2.84007075		1.24600486		 0.00009043		-0.00009026		-0.00030953
O		6.85388014		5.18754648		1.24600486		-0.00009043		 0.00009027		-0.00030954
O		2.84007152		6.85387859		3.91864459		-0.00009023		-0.00009032		 0.00031969
O		5.18754726		1.17373787		3.91864459		 0.00009023		 0.00009033		 0.00031931
O		0.65369130		1.50037133		4.04497907		-0.00030389		-0.00035346		 0.00021521
O		7.37392748		6.52724590		4.04497907		 0.00030391		 0.00035351		 0.00021520
O		1.50037442		7.37392593		1.11967348		-0.00035759		 0.00030520		-0.00021278
O		6.52724436		0.65369208		1.11967348		 0.00035745		-0.00030515		-0.00021282
O		3.36011809		5.51418149		1.11967270		 0.00030549		-0.00035839		-0.00021248
O		4.66750069		2.51343497		1.11967270		-0.00030546		 0.00035824		-0.00021256
O		2.51343729		3.36011809		4.04497907		 0.00035440		 0.00030428		 0.00021494
O		5.51418149		4.66749915		4.04497907		-0.00035437		-0.00030430		 0.00021497
