# total energy = -92489.0799142 eV	

CRYSTAL	
PRIMVEC	
		17.11249948		0.00000000		0.00000000	
		0.00000000		17.89998249		0.00000000	
		0.00000000		0.00000000		5.26999957	
PRIMCOORD
   164 1	
Mg		2.22462493		3.04299771		2.00260052		 0.00001743		 0.00003981		 0.00031294	
Mg		14.88787455		14.85698991		3.26739905		-0.00001743		-0.00003981		-0.00031294	
Mg		6.33162481		14.85698991		4.63760030		-0.00001743		-0.00003981		 0.00031294	
Mg		10.78087468		3.04299771		0.63239926		 0.00001743		 0.00003981		-0.00031294	
Mg		14.88787455		11.99299408		3.26739905		-0.00001743		 0.00003981		-0.00031294	
Mg		2.22462493		5.90699525		2.00260052		 0.00001743		-0.00003981		 0.00031294	
Mg		10.78087468		5.90699525		0.63239926		 0.00001743		-0.00003981		-0.00031294	
Mg		6.33162481		11.99299408		4.63760030		-0.00001743		 0.00003981		 0.00031294	
Mg		2.22462493		1.43199963		4.58490065		-0.00002598		-0.00023496		-0.00007280	
Mg		14.88787455		16.46798971		0.68510063		 0.00002598		 0.00023496		 0.00007280	
Mg		6.33162481		16.46798971		1.94989916		 0.00002598		 0.00023496		-0.00007280	
Mg		10.78087468		1.43199963		3.32010041		-0.00002598		-0.00023496		 0.00007280	
Mg		14.88787455		10.38199429		0.68510063		 0.00002598		-0.00023496		 0.00007280	
Mg		2.22462493		7.51799504		4.58490065		-0.00002598		 0.00023496		-0.00007280	
Mg		10.78087468		7.51799504		3.32010041		-0.00002598		 0.00023496		 0.00007280	
Mg		6.33162481		10.38199429		1.94989916		 0.00002598		-0.00023496		-0.00007280	
Mg		2.22462493		17.54199071		2.00260052		 0.00003519		 0.00048910		 0.00050728	
Mg		14.88787455		0.35800033		3.26739905		-0.00003519		-0.00048910		-0.00050728	
Mg		6.33162481		0.35800033		4.63760030		-0.00003519		-0.00048910		 0.00050728	
Mg		10.78087468		17.54199071		0.63239926		 0.00003519		 0.00048910		-0.00050728	
Mg		14.88787455		8.59199433		3.26739905		-0.00003519		 0.00048910		-0.00050728	
Mg		2.22462493		9.30799500		2.00260052		 0.00003519		-0.00048910		 0.00050728	
Mg		10.78087468		9.30799500		0.63239926		 0.00003519		-0.00048910		-0.00050728	
Mg		6.33162481		8.59199433		4.63760030		-0.00003519		 0.00048910		 0.00050728	
Mg		2.22462493		4.47499733		4.58490065		 0.00006375		0.00000000		-0.00010757	
Mg		14.88787455		13.42499200		0.68510063		-0.00006375		0.00000000		 0.00010757	
Mg		6.33162481		13.42499200		1.94989916		-0.00006375		0.00000000		-0.00010757	
Mg		10.78087468		4.47499733		3.32010041		 0.00006375		0.00000000		 0.00010757	
Si		0.51337498		14.67799146		1.52830022		-0.00017834		 0.00018916		 0.00024063	
Si		16.59912450		3.22199787		3.74169935		 0.00017834		-0.00018916		-0.00024063	
Si		8.04287476		3.22199787		4.16330000		 0.00017834		-0.00018916		 0.00024063	
Si		9.06962473		14.67799146		1.10669957		-0.00017834		 0.00018916		-0.00024063	
Si		16.59912450		5.72799679		3.74169935		 0.00017834		 0.00018916		-0.00024063	
Si		0.51337498		12.17199254		1.52830022		-0.00017834		-0.00018916		 0.00024063	
Si		9.06962473		12.17199254		1.10669957		-0.00017834		-0.00018916		-0.00024063	
Si		8.04287476		5.72799679		4.16330000		 0.00017834		 0.00018916		 0.00024063	
Si		0.51337498		16.46798971		4.16330000		-0.00008831		 0.00040139		-0.00015996	
Si		16.59912450		1.43199963		1.10669957		 0.00008831		-0.00040139		 0.00015996	
Si		8.04287476		1.43199963		1.52830022		 0.00008831		-0.00040139		-0.00015996	
Si		9.06962473		16.46798971		3.74169935		-0.00008831		 0.00040139		 0.00015996	
Si		16.59912450		7.51799504		1.10669957		 0.00008831		 0.00040139		 0.00015996	
Si		0.51337498		10.38199429		4.16330000		-0.00008831		-0.00040139		-0.00015996	
Si		9.06962473		10.38199429		3.74169935		-0.00008831		-0.00040139		 0.00015996	
Si		8.04287476		7.51799504		1.52830022		 0.00008831		 0.00040139		-0.00015996	
Si		3.76474989		16.46798971		0.21080032		-0.00020829		-0.00016881		 0.00005438	
Si		13.34774960		1.43199963		5.05919924		 0.00020829		 0.00016881		-0.00005438	
Si		4.79149986		1.43199963		2.84580011		 0.00020829		 0.00016881		 0.00005438	
Si		12.32099963		16.46798971		2.42419946		-0.00020829		-0.00016881		-0.00005438	
Si		13.34774960		7.51799504		5.05919924		 0.00020829		-0.00016881		-0.00005438	
Si		3.76474989		10.38199429		0.21080032		-0.00020829		 0.00016881		 0.00005438	
Si		12.32099963		10.38199429		2.42419946		-0.00020829		 0.00016881		-0.00005438	
Si		4.79149986		7.51799504		2.84580011		 0.00020829		-0.00016881		 0.00005438	
Si		3.76474989		14.67799146		2.84580011		 0.00016786		-0.00000456		-0.00020930	
Si		13.34774960		3.22199787		2.42419946		-0.00016786		 0.00000456		 0.00020930	
Si		4.79149986		3.22199787		0.21080032		-0.00016786		 0.00000456		-0.00020930	
Si		12.32099963		14.67799146		5.05919924		 0.00016786		-0.00000456		 0.00020930	
Si		13.34774960		5.72799679		2.42419946		-0.00016786		-0.00000456		 0.00020930	
Si		3.76474989		12.17199254		2.84580011		 0.00016786		 0.00000456		-0.00020930	
Si		12.32099963		12.17199254		5.05919924		 0.00016786		 0.00000456		 0.00020930	
Si		4.79149986		5.72799679		0.21080032		-0.00016786		-0.00000456		-0.00020930	
O		1.02674997		1.25299946		1.05399991		 0.00028084		 0.00040684		-0.00032967	
O		16.08574952		16.64698987		4.21599965		-0.00028084		-0.00040684		 0.00032967	
O		7.52949977		16.64698987		3.68899970		-0.00028084		-0.00040684		-0.00032967	
O		9.58299971		1.25299946		1.58099987		 0.00028084		 0.00040684		 0.00032967	
O		16.08574952		10.20299412		4.21599965		-0.00028084		 0.00040684		 0.00032967	
O		1.02674997		7.69699521		1.05399991		 0.00028084		-0.00040684		-0.00032967	
O		9.58299971		7.69699521		1.58099987		 0.00028084		-0.00040684		 0.00032967	
O		7.52949977		10.20299412		3.68899970		-0.00028084		 0.00040684		-0.00032967	
O		1.02674997		3.22199787		3.68899970		 0.00027844		 0.00026748		-0.00010284	
O		16.08574952		14.67799146		1.58099987		-0.00027844		-0.00026748		 0.00010284	
O		7.52949977		14.67799146		1.05399991		-0.00027844		-0.00026748		-0.00010284	
O		9.58299971		3.22199787		4.21599965		 0.00027844		 0.00026748		 0.00010284	
O		16.08574952		12.17199254		1.58099987		-0.00027844		 0.00026748		 0.00010284	
O		1.02674997		5.72799679		3.68899970		 0.00027844		-0.00026748		-0.00010284	
O		9.58299971		5.72799679		4.21599965		 0.00027844		-0.00026748		 0.00010284	
O		7.52949977		12.17199254		1.05399991		-0.00027844		 0.00026748		-0.00010284	
O		1.02674997		13.42499200		1.05399991		-0.00037350		0.00000000		 0.00025110	
O		16.08574952		4.47499733		4.21599965		 0.00037350		0.00000000		-0.00025110	
O		7.52949977		4.47499733		3.68899970		 0.00037350		-0.00000000		 0.00025110	
O		9.58299971		13.42499200		1.58099987		-0.00037350		0.00000000		-0.00025110	
O		1.02674997		4.47499733		1.05399991		 0.00035108		-0.00000000		-0.00073471	
O		16.08574952		13.42499200		4.21599965		-0.00035108		-0.00000000		 0.00073471	
O		7.52949977		13.42499200		3.68899970		-0.00035108		0.00000000		-0.00073471	
O		9.58299971		4.47499733		1.58099987		 0.00035108		0.00000000		 0.00073471	
O		1.02674997		0.00000000		3.68899970		-0.00033860		 0.00010108		-0.00025629	
O		16.08574952		0.00000000		1.58099987		 0.00033860		-0.00010108		 0.00025629	
O		7.52949977		0.00000000		1.05399991		 0.00033860		-0.00010108		-0.00025629	
O		9.58299971		0.00000000		4.21599965		-0.00033860		 0.00010108		 0.00025629	
O		16.08574952		8.94999467		1.58099987		 0.00033860		 0.00010108		 0.00025629	
O		1.02674997		8.94999467		3.68899970		-0.00033860		-0.00010108		-0.00025629	
O		9.58299971		8.94999467		4.21599965		-0.00033860		-0.00010108		 0.00025629	
O		7.52949977		8.94999467		1.05399991		 0.00033860		 0.00010108		-0.00025629	
O		0.85562497		15.57299058		0.26349998		-0.00014660		-0.00023792		 0.00034561	
O		16.25687451		2.32699875		5.00649959		 0.00014660		 0.00023792		-0.00034561	
O		7.70062477		2.32699875		2.89849976		 0.00014660		 0.00023792		 0.00034561	
O		9.41187472		15.57299058		2.37149980		-0.00014660		-0.00023792		-0.00034561	
O		16.25687451		6.62299592		5.00649959		 0.00014660		-0.00023792		-0.00034561	
O		0.85562497		11.27699342		0.26349998		-0.00014660		 0.00023792		 0.00034561	
O		9.41187472		11.27699342		2.37149980		-0.00014660		 0.00023792		-0.00034561	
O		7.70062477		6.62299592		2.89849976		 0.00014660		-0.00023792		 0.00034561	
O		0.85562497		15.57299058		2.84580011		 0.00005795		 0.00035771		 0.00037763	
O		16.25687451		2.32699875		2.42419946		-0.00005795		-0.00035771		-0.00037763	
O		7.70062477		2.32699875		0.21080032		-0.00005795		-0.00035771		 0.00037763	
O		9.41187472		15.57299058		5.05919924		 0.00005795		 0.00035771		-0.00037763	
O		16.25687451		6.62299592		2.42419946		-0.00005795		 0.00035771		-0.00037763	
O		0.85562497		11.27699342		2.84580011		 0.00005795		-0.00035771		 0.00037763	
O		9.41187472		11.27699342		5.05919924		 0.00005795		-0.00035771		-0.00037763	
O		7.70062477		6.62299592		0.21080032		-0.00005795		 0.00035771		 0.00037763	
O		3.25137490		3.22199787		0.26349998		-0.00000956		-0.00022578		-0.00004156	
O		13.86112458		14.67799146		5.00649959		 0.00000956		 0.00022578		 0.00004156	
O		5.30487484		14.67799146		2.89849976		 0.00000956		 0.00022578		-0.00004156	
O		11.80762464		3.22199787		2.37149980		-0.00000956		-0.00022578		 0.00004156	
O		13.86112458		12.17199254		5.00649959		 0.00000956		-0.00022578		 0.00004156	
O		3.25137490		5.72799679		0.26349998		-0.00000956		 0.00022578		-0.00004156	
O		11.80762464		5.72799679		2.37149980		-0.00000956		 0.00022578		 0.00004156	
O		5.30487484		12.17199254		2.89849976		 0.00000956		-0.00022578		-0.00004156	
O		3.25137490		1.25299946		2.95119941		-0.00012828		-0.00012074		-0.00012848	
O		13.86112458		16.64698987		2.31880015		 0.00012828		 0.00012074		 0.00012848	
O		5.30487484		16.64698987		0.31619963		 0.00012828		 0.00012074		-0.00012848	
O		11.80762464		1.25299946		4.95379993		-0.00012828		-0.00012074		 0.00012848	
O		13.86112458		10.20299412		2.31880015		 0.00012828		-0.00012074		 0.00012848	
O		3.25137490		7.69699521		2.95119941		-0.00012828		 0.00012074		-0.00012848	
O		11.80762464		7.69699521		4.95379993		-0.00012828		 0.00012074		 0.00012848	
O		5.30487484		10.20299412		0.31619963		 0.00012828		-0.00012074		-0.00012848	
O		3.25137490		0.00000000		0.26349998		-0.00017276		-0.00030312		 0.00014217	
O		13.86112458		0.00000000		5.00649959		 0.00017276		 0.00030312		-0.00014217	
O		5.30487484		0.00000000		2.89849976		 0.00017276		 0.00030312		 0.00014217	
O		11.80762464		0.00000000		2.37149980		-0.00017276		-0.00030312		-0.00014217	
O		13.86112458		8.94999467		5.00649959		 0.00017276		-0.00030312		-0.00014217	
O		3.25137490		8.94999467		0.26349998		-0.00017276		 0.00030312		 0.00014217	
O		11.80762464		8.94999467		2.37149980		-0.00017276		 0.00030312		-0.00014217	
O		5.30487484		8.94999467		2.89849976		 0.00017276		-0.00030312		 0.00014217	
O		3.25137490		13.42499200		2.37149980		-0.00021363		-0.00000000		-0.00019660	
O		13.86112458		4.47499733		2.89849976		 0.00021363		0.00000000		 0.00019660	
O		5.30487484		4.47499733		5.00649959		 0.00021363		-0.00000000		-0.00019660	
O		11.80762464		13.42499200		0.26349998		-0.00021363		-0.00000000		 0.00019660	
O		3.25137490		4.47499733		2.89849976		-0.00009345		0.00000000		 0.00061559	
O		13.86112458		13.42499200		2.37149980		 0.00009345		0.00000000		-0.00061559	
O		5.30487484		13.42499200		0.26349998		 0.00009345		0.00000000		 0.00061559	
O		11.80762464		4.47499733		5.00649959		-0.00009345		0.00000000		-0.00061559	
O		3.42249990		15.57299058		1.58099987		 0.00002600		 0.00036681		 0.00029765	
O		13.68999959		2.32699875		3.68899970		-0.00002600		-0.00036681		-0.00029765	
O		5.13374985		2.32699875		4.21599965		-0.00002600		-0.00036681		 0.00029765	
O		11.97874964		15.57299058		1.05399991		 0.00002600		 0.00036681		-0.00029765	
O		13.68999959		6.62299592		3.68899970		-0.00002600		 0.00036681		-0.00029765	
O		3.42249990		11.27699342		1.58099987		 0.00002600		-0.00036681		 0.00029765	
O		11.97874964		11.27699342		1.05399991		 0.00002600		-0.00036681		-0.00029765	
O		5.13374985		6.62299592		4.21599965		-0.00002600		 0.00036681		 0.00029765	
O		3.42249990		15.57299058		4.21599965		-0.00014466		 0.00007945		 0.00031512	
O		13.68999959		2.32699875		1.05399991		 0.00014466		-0.00007945		-0.00031512	
O		5.13374985		2.32699875		1.58099987		 0.00014466		-0.00007945		 0.00031512	
O		11.97874964		15.57299058		3.68899970		-0.00014466		 0.00007945		-0.00031512	
O		13.68999959		6.62299592		1.05399991		 0.00014466		 0.00007945		-0.00031512	
O		3.42249990		11.27699342		4.21599965		-0.00014466		-0.00007945		 0.00031512	
O		11.97874964		11.27699342		3.68899970		-0.00014466		-0.00007945		-0.00031512	
O		5.13374985		6.62299592		1.58099987		 0.00014466		 0.00007945		 0.00031512	
H		16.59912450		0.00000000		0.79049993		 0.00012575		 0.00022140		-0.00019767	
H		0.51337498		0.00000000		4.47949963		-0.00012575		-0.00022140		 0.00019767	
H		9.06962473		0.00000000		3.42549972		-0.00012575		-0.00022140		-0.00019767	
H		8.04287476		0.00000000		1.84449985		 0.00012575		 0.00022140		 0.00019767	
H		0.51337498		8.94999467		4.47949963		-0.00012575		 0.00022140		 0.00019767	
H		16.59912450		8.94999467		0.79049993		 0.00012575		-0.00022140		-0.00019767	
H		8.04287476		8.94999467		1.84449985		 0.00012575		-0.00022140		 0.00019767	
H		9.06962473		8.94999467		3.42549972		-0.00012575		 0.00022140		-0.00019767	
