# total energy = -22469.0780801 eV	

CRYSTAL	
PRIMVEC	
		9.59024435		0.00000000		0.06663903	
		0.00000000		8.66753438		0.00000000	
		-1.37884934		0.00000000		4.96797750	
PRIMCOORD
   40 1	
Mg		-0.34471331		7.89452361		1.24199486		0.00000000		-0.00015125		 0.00000010	
Mg		-1.03413895		0.77300883		3.72598556		 0.00000004		 0.00015174		-0.00000005	
Mg		4.45040887		3.56075739		1.27531438		 0.00000016		-0.00014824		-0.00000013	
Mg		3.76098225		5.10677504		3.75930507		 0.00000002		 0.00014817		 0.00000019	
Ca		-0.34471331		2.64805497		1.24199486		-0.00000016		-0.00011752		-0.00000022	
Ca		-1.03413895		6.01947844		3.72598556		 0.00000020		 0.00011732		 0.00000031	
Ca		4.45040887		6.98182119		1.27531438		 0.00000003		-0.00012186		-0.00000001	
Ca		3.76098322		1.68571125		3.75930507		 0.00000002		 0.00012183		 0.00000002	
Si		2.42985939		0.83203725		1.16346074		-0.00017956		 0.00047614		-0.00035204	
Si		5.78153172		7.83549421		3.87115871		 0.00017946		-0.00047489		 0.00035225	
Si		6.47095736		0.83203725		1.38716801		 0.00018116		 0.00047628		 0.00035277	
Si		1.74043375		7.83549421		3.64745144		-0.00018147		-0.00047462		-0.00035321	
Si		7.22499812		5.16581224		1.19678804		-0.00024585		 0.00044018		-0.00038035	
Si		0.98639494		3.50172117		3.83783335		 0.00024041		-0.00044545		 0.00037733	
Si		1.67582156		5.16581029		1.35384266		 0.00023892		 0.00044587		 0.00037651	
Si		6.53556956		3.50172215		3.68077679		-0.00023675		-0.00044849		-0.00037518	
O		0.90064370		0.77846890		0.71183377		 0.00006597		-0.00039729		-0.00003861	
O		7.31074839		7.88906256		4.32278665		-0.00006612		 0.00039689		 0.00003864	
O		8.00017501		0.77846890		1.83879596		-0.00006722		-0.00039741		 0.00003820	
O		0.21121708		7.88906354		3.19582349		 0.00006735		 0.00039694		-0.00003820	
O		5.69575516		5.11223415		0.74514939		 0.00010819		-0.00039223		-0.00002551	
O		2.51563596		3.55529732		4.28947006		-0.00010458		 0.00039263		 0.00002655	
O		3.20506160		5.11223415		1.80547936		-0.00010364		-0.00039267		 0.00002704	
O		5.00633049		3.55529732		3.22914106		 0.00010203		 0.00039286		-0.00002750	
O		3.00072269		2.22674477		1.65759273		 0.00022227		 0.00043176		-0.00032473	
O		5.21066842		6.44078767		3.37702769		-0.00022238		-0.00043227		 0.00032461	
O		5.90009504		2.22674379		0.89303699		-0.00022252		 0.00043208		 0.00032469	
O		2.31129608		6.44078864		4.14158246		 0.00022277		-0.00043306		-0.00032443	
O		7.79583902		6.56050027		1.69090835		 0.00024443		 0.00046772		-0.00031283	
O		0.41555209		2.10703022		3.34371110		-0.00024232		-0.00046335		 0.00031420	
O		1.10497774		6.56050222		0.85972040		-0.00024214		 0.00046236		 0.00031448	
O		7.10641435		2.10702924		4.17490002		 0.00024108		-0.00046043		-0.00031516	
O		2.03567523		0.21011552		4.93884411		 0.00023716		 0.00001736		-0.00040305	
O		6.17571686		8.45741691		0.09577534		-0.00023695		-0.00001784		 0.00040263	
O		5.48629122		0.21011455		2.57976701		-0.00023718		 0.00001693		 0.00040355	
O		2.72510087		8.45741691		2.45485244		 0.00023703		-0.00001739		-0.00040305	
O		6.83079448		4.54388077		4.97216265		 0.00024627		 0.00001916		-0.00039947	
O		1.38059761		4.12365167		0.06245777		-0.00024635		-0.00001849		 0.00039999	
O		0.69117100		4.54388077		2.54644847		-0.00024632		 0.00001887		 0.00039968	
O		7.52022012		4.12365070		2.48817195		 0.00024655		-0.00001832		-0.00040001	
