# total energy = -24716.2062711 eV

CRYSTAL
PRIMVEC
		9.61327030		0.00000000		-0.38453043
		0.00000000		8.82245646		0.00000000
		-1.82390263		0.00000000		4.97706560
PRIMECORD
   40 1
Mg		1.99481605		5.76459581		0.99273561		-0.00005080		-0.00000772		 0.00018948
Mg		5.79454681		3.05786450		3.59979957		 0.00005080		 0.00000772		-0.00018948
Mg		6.70650101		1.35336469		1.11126580		 0.00005080		-0.00000772		-0.00018948
Mg		1.08286281		7.46909466		3.48127033		-0.00005080		 0.00000772		 0.00018948
Mg		2.07316624		0.10675222		0.97538036		 0.00019749		 0.00027653		 0.00041728
Mg		5.71619662		8.71570905		3.61715577		-0.00019749		-0.00027653		-0.00041728
Mg		6.62814986		4.51798237		1.12862201		-0.00019749		 0.00027653		-0.00041728
Mg		1.16121300		4.30447793		3.46391412		 0.00019749		-0.00027653		 0.00041728
Si		-0.09920939		2.99610661		1.46490334		-0.00001802		 0.00058413		-0.00023839
Si		7.88857225		5.82635273		3.12763280		 0.00001802		-0.00058413		 0.00023839
Si		8.80052453		7.40733677		0.63910000		 0.00001802		 0.00058413		 0.00023839
Si		-1.01116167		1.41512258		3.95343614		-0.00001802		-0.00058413		-0.00023839
Si		4.90164788		7.39057514		0.91324437		 0.00018312		 0.00020299		-0.00009447
Si		2.88771498		1.43188517		3.67929176		-0.00018312		-0.00020299		 0.00009447
Si		3.79966918		2.97934498		1.19075896		-0.00018312		 0.00020299		 0.00009447
Si		3.98969464		5.84311533		3.40177717		 0.00018312		-0.00020299		-0.00009447
O		8.01218135		3.00757672		0.60099523		 0.00006038		 0.00030623		-0.00007597
O		-0.22281656		5.81488263		3.99154090		-0.00006038		-0.00030623		 0.00007597
O		0.68913571		7.41880687		1.50300714		-0.00006038		 0.00030623		 0.00007597
O		7.10022715		1.40365343		3.08952900		 0.00006038		-0.00030623		-0.00007597
O		0.61751057		4.41652264		1.54853832		-0.00009006		 0.00077585		 0.00013583
O		7.17185229		4.40593670		3.04399782		 0.00009006		-0.00077585		-0.00013583
O		8.08380553		0.00529345		0.55546405		 0.00009006		 0.00077585		-0.00013583
O		-0.29444171		8.81716686		4.03707208		-0.00009006		-0.00077585		 0.00013583
O		-0.11297024		2.47911100		3.00681474		 0.00048523		-0.00013174		-0.00011905
O		7.90233407		6.34334931		1.58572140		-0.00048523		 0.00013174		 0.00011905
O		6.99038083		6.89034211		4.07425420		-0.00048523		-0.00013174		 0.00011905
O		0.79898299		1.93211916		0.51828194		 0.00048523		 0.00013174		-0.00011905
O		3.36845017		7.39233866		0.49347911		 0.00047911		 0.00022103		-0.00049044
O		4.42091269		1.43012069		4.09905799		-0.00047911		-0.00022103		 0.00049044
O		5.33286689		2.98110850		1.61052422		-0.00047911		 0.00022103		 0.00049044
O		2.45649694		5.84135084		2.98201191		 0.00047911		-0.00022103		-0.00049044
O		5.39760535		8.61425028		1.73887357		-0.00014898		-0.00010795		 0.00032147
O		2.39175751		0.20821003		2.85366160		 0.00014898		 0.00010795		-0.00032147
O		3.30371171		4.20302013		0.36512784		 0.00014898		-0.00010795		-0.00032147
O		4.48565211		4.61944018		4.22740829		-0.00014898		 0.00010795		 0.00032147
O		4.99068022		6.13161032		1.99888572		-0.00012966		 0.00063551		 0.00035462
O		2.79868264		2.69084999		2.59365138		 0.00012966		-0.00063551		-0.00035462
O		3.71063588		1.72038016		0.10511666		 0.00012966		 0.00063551		-0.00035462
O		4.07872698		7.10208111		4.48741852		-0.00012966		-0.00063551		 0.00035462
