# total energy = -24714.3802516 eV

CRYSTAL
PRIMVEC
		9.61326692		0.00000000		-0.76905942
		0.00000000		8.82246031		0.00000000
		-2.02038551		0.00000000		5.04216363
PRIMECORD
   40 1
Mg		1.95184572		5.76459536		0.91122524		 0.00016014		 0.00043145		-0.00017313
Mg		5.64103762		3.05786495		3.36187801		-0.00016014		-0.00043145		 0.00017313
Mg		6.65123037		1.35336521		0.84079619		-0.00016014		 0.00043145		 0.00017313
Mg		0.94165297		7.46909510		3.43230705		 0.00016014		-0.00043145		-0.00017313
Mg		2.03076629		0.10675214		0.89075781		 0.00013317		-0.00069202		-0.00060001
Mg		5.56211801		8.71570817		3.38234447		-0.00013317		 0.00069202		 0.00060001
Mg		6.57231077		4.51798133		0.86126265		-0.00013317		-0.00069202		 0.00060001
Mg		1.02057257		4.30447801		3.41183963		 0.00013317		 0.00069202		-0.00060001
Si		-0.15773988		2.99610681		1.46652963		-0.00025624		-0.00018679		 0.00037125
Si		7.75062322		5.82635254		2.80657265		 0.00025624		 0.00018679		-0.00037125
Si		8.76081694		7.40733696		0.28548986		 0.00025624		-0.00018679		-0.00037125
Si		-1.16793167		1.41512335		3.98761145		-0.00025624		 0.00018679		 0.00037125
Si		4.85720361		7.39057476		0.71540030		-0.00005589		-0.00015010		 0.00018464
Si		2.73567973		1.43188459		3.55770198		 0.00005589		 0.00015010		-0.00018464
Si		3.74587248		2.97934460		1.03662016		 0.00005589		-0.00015010		-0.00018464
Si		3.84701182		5.84311474		3.23648212		-0.00005589		 0.00015010		 0.00018464
O		7.97526148		3.00757640		0.27903129		-0.00000040		 0.00053643		-0.00029652
O		-0.38237814		5.81488295		3.99407099		 0.00000040		-0.00053643		 0.00029652
O		0.62781461		7.41880655		1.47298917		 0.00000040		 0.00053643		 0.00029652
O		6.96506969		1.40365279		2.80011311		-0.00000040		-0.00053643		-0.00029652
O		0.55447984		4.41652277		1.52131710		-0.00008253		-0.00026600		 0.00061958
O		7.03840350		4.40593657		2.75178614		 0.00008253		 0.00026600		-0.00061958
O		8.04859625		0.00529262		0.23070433		 0.00008253		-0.00026600		-0.00061958
O		-0.45571195		8.81716673		4.04239892		-0.00008253		 0.00026600		 0.00061958
O		-0.23325516		2.47911120		3.00652327		-0.00046673		-0.00038228		-0.00007313
O		7.82613850		6.34334911		1.26657997		 0.00046673		 0.00038228		 0.00007313
O		6.81594671		6.89034136		3.78766179		 0.00046673		-0.00038228		 0.00007313
O		0.77693759		1.93211895		0.48544146		-0.00046673		 0.00038228		-0.00007313
O		3.34328055		7.39233864		0.35773391		-0.00034151		-0.00073928		 0.00072550
O		4.24960375		1.43012071		3.91536837		 0.00034151		 0.00073928		-0.00072550
O		5.25979554		2.98110849		1.39428656		 0.00034151		-0.00073928		-0.00072550
O		2.33308780		5.84135086		2.87881572		-0.00034151		 0.00073928		 0.00072550
O		5.31928734		8.61424961		1.51983771		-0.00008004		 0.00012137		-0.00055617
O		2.27359600		0.20820974		2.75326456		 0.00008004		-0.00012137		 0.00055617
O		3.28378875		4.20301946		0.23218275		 0.00008004		 0.00012137		 0.00055617
O		4.30909555		4.61943989		4.04091857		-0.00008004		-0.00012137		-0.00055617
O		4.90259880		6.13160967		1.79573471		 0.00046373		-0.00003673		 0.00028386
O		2.69028550		2.69084967		2.47736661		-0.00046373		 0.00003673		-0.00028386
O		3.70047825		1.72037952		-0.04371521		-0.00046373		-0.00003673		-0.00028386
O		3.89240605		7.10208079		4.31681653		 0.00046373		 0.00003673		 0.00028386
