# total energy = -24714.7737574 eV

CRYSTAL
PRIMVEC
		9.61326692		0.00000000		0.76905942
		0.00000000		8.82246031		0.00000000
		-1.23446840		0.00000000		4.78177609
PRIMECORD
   40 1
Mg		2.12372561		5.76459536		1.23727094		 0.00024319		-0.00079185		-0.00021918
Mg		6.25507387		3.05786495		4.31356650		-0.00024319		 0.00079185		 0.00021918
Mg		6.87230904		1.35336521		1.92267846		-0.00024319		-0.00079185		 0.00021918
Mg		1.50649141		7.46909510		3.62815802		 0.00024319		 0.00079185		-0.00021918
Mg		2.20036634		0.10675214		1.22924811		-0.00025610		-0.00009888		 0.00049398
Mg		6.17843314		8.71570817		4.32158837		 0.00025610		 0.00009888		-0.00049398
Mg		6.79566734		4.51798133		1.93070129		 0.00025610		-0.00009888		-0.00049398
Mg		1.58313118		4.30447801		3.62013616		-0.00025610		 0.00009888		 0.00049398
Si		0.07638420		2.99610681		1.46002187		 0.00045088		 0.00010601		 0.00070109
Si		8.30241431		5.82635254		4.09081557		-0.00045088		-0.00010601		-0.00070109
Si		8.91965044		7.40733696		1.69992752		-0.00045088		 0.00010601		-0.00070109
Si		-0.54085096		1.41512335		3.85090896		 0.00045088		-0.00010601		 0.00070109
Si		5.03497790		7.39057476		1.50677494		 0.00030972		-0.00026024		-0.00041516
Si		3.34382061		1.43188459		4.04406154		-0.00030972		 0.00026024		 0.00041516
Si		3.96105578		2.97934460		1.65317446		-0.00030972		-0.00026024		 0.00041516
Si		4.41774274		5.84311474		3.89766299		 0.00030972		 0.00026024		-0.00041516
O		8.12293593		3.00757640		1.56688685		 0.00023132		 0.00026645		 0.00020351
O		0.25586355		5.81488295		3.98394963		-0.00023132		-0.00026645		-0.00020351
O		0.87309871		7.41880655		1.59306158		-0.00023132		 0.00026645		-0.00020351
O		7.50570077		1.40365279		3.95777490		 0.00023132		-0.00026645		 0.00020351
O		0.80660152		4.41652277		1.63020249		 0.00044041		 0.00058085		-0.00007759
O		7.57219796		4.40593657		3.92063399		-0.00044041		-0.00058085		 0.00007759
O		8.18943216		0.00529262		1.52974594		-0.00044041		 0.00058085		 0.00007759
O		0.18936732		8.81716673		4.02109054		 0.00044041		-0.00058085		-0.00007759
O		0.24788315		2.47911120		3.00769309		 0.00012081		-0.00024925		 0.00080197
O		8.13091633		6.34334911		2.54314436		-0.00012081		 0.00024925		-0.00080197
O		7.51368213		6.89034136		4.93403144		-0.00012081		-0.00024925		-0.00080197
O		0.86511832		1.93211895		0.61680504		 0.00012081		 0.00024925		 0.00080197
O		3.44395698		7.39233864		0.90071329		-0.00009390		-0.00001818		 0.00021762
O		4.93484250		1.43012071		4.65012415		 0.00009390		 0.00001818		-0.00021762
O		5.55207766		2.98110849		2.25923707		 0.00009390		-0.00001818		-0.00021762
O		2.82672182		5.84135086		3.29160038		-0.00009390		 0.00001818		 0.00021762
O		5.63255381		8.61424961		2.39598489		 0.00071692		 0.00010767		-0.00059625
O		2.74624471		0.20820974		3.15485159		-0.00071692		-0.00010767		 0.00059625
O		3.36348084		4.20301946		0.76396354		-0.00071692		 0.00010767		 0.00059625
O		5.01531864		4.61943989		4.78687294		 0.00071692		-0.00010767		-0.00059625
O		5.25492436		6.13160967		2.60833672		 0.00016162		-0.00017440		 0.00047656
O		3.12387512		2.69084967		2.94249976		-0.00016162		 0.00017440		-0.00047656
O		3.74111028		1.72037952		0.55161172		-0.00016162		-0.00017440		-0.00047656
O		4.63769016		7.10208079		4.99922476		 0.00016162		 0.00017440		 0.00047656
