# total energy = -8762.14865402 eV

CRYSTAL
PRIMVEC
		3.01645911		0.00000000		0.00000000
		-1.50822956		2.61232787		0.00000000
		0.00000000		0.00000000		11.81430027
PRIMECORD
   11 1
H		0.00000000		1.74155272		5.65740526		 0.00000001		0.00000000		 0.00006054
H		1.50822864		0.87077606		6.15691391		-0.00000001		-0.00000000		-0.00013030
Mg		0.00000000		0.00000000		8.18565375		 0.00000001		0.00000000		 0.00003371
Mg		0.00000000		0.00000000		3.62864774		-0.00000002		0.00000000		-0.00003766
Mg		1.50822834		0.87077606		10.60959420		 0.00000003		 0.00000001		-0.00026367
Mg		0.00000000		1.74155303		1.20470455		-0.00000003		-0.00000002		 0.00026889
O		1.50822925		0.87077636		2.41425207		-0.00000002		-0.00000003		-0.00010545
O		0.00000000		1.74155242		9.40004972		 0.00000002		 0.00000003		 0.00010034
O		0.00000000		1.74155272		4.69294314		 0.00000001		-0.00000000		-0.00011596
O		1.50822864		0.87077606		7.12133702		-0.00000001		 0.00000001		 0.00019209
O		0.00000000		0.00000000		0.00000000		 0.00000001		-0.00000000		-0.00000253
