# total energy = -8762.14096558 eV

CRYSTAL
PRIMVEC
		3.05685730		0.00000000		0.00000000
		-1.52842865		2.64731586		0.00000000
		0.00000000		0.00000000		12.16253730
PRIMECORD
   11 1
H		0.00000000		1.76487724		5.69940457		-0.00000000		-0.00000000		-0.00038395
H		1.52842865		0.88243862		6.46313487		0.00000000		0.00000000		 0.00038062
Mg		0.00000000		0.00000000		8.49460815		-0.00000000		0.00000000		-0.00026588
Mg		0.00000000		0.00000000		3.66793067		-0.00000000		-0.00000000		 0.00026570
Mg		1.52842865		0.88243862		10.94578096		-0.00000000		-0.00000000		-0.00032163
Mg		0.00000000		1.76487724		1.21675787		-0.00000000		 0.00000001		 0.00032184
O		1.52842865		0.88243862		2.43883236		 0.00000001		-0.00000000		 0.00034795
O		0.00000000		1.76487724		9.72370646		0.00000000		0.00000000		-0.00034816
O		0.00000000		1.76487724		4.73543439		-0.00000000		0.00000000		-0.00000278
O		1.52842865		0.88243862		7.42710322		-0.00000000		-0.00000000		 0.00000643
O		0.00000000		0.00000000		0.00000000		-0.00000000		-0.00000000		-0.00000010
