# total energy = -24707.3959812 eV

CRYSTAL
PRIMVEC
		9.20099977		0.00000000		0.00000000
		0.00000000		8.62099635		1.03452361
		-0.97849872		0.57713271		4.80947299
PRIMECORD
   40 1
Si		2.54259968		0.91071312		1.11041898		 0.00017417		 0.00013984		 0.00000231
Si		5.67990229		8.28742422		4.73357211		-0.00017417		-0.00013984		-0.00000231
Si		6.16915073		0.95549898		1.48363361		-0.00068374		-0.00009743		-0.00021064
Si		2.05335124		8.24263744		4.36035655		 0.00068374		 0.00009743		 0.00021064
Si		7.14309956		5.22121313		1.62767894		 0.00012867		 0.00012037		-0.00001369
Si		1.07940241		3.97692421		4.21631214		-0.00012867		-0.00012037		 0.00001369
Si		1.56865085		5.26599900		2.00089358		-0.00060266		-0.00015460		-0.00016824
Si		6.65385112		3.93213834		3.84309659		 0.00060266		 0.00015460		 0.00016824
Mg		-0.24462422		7.95232381		2.13933182		 0.00016417		 0.00007017		-0.00001289
Mg		-0.73387266		1.24581169		3.70465834		-0.00016417		-0.00007017		 0.00001289
Mg		4.35587567		3.64182380		1.62207185		 0.00016388		 0.00007494		-0.00001177
Mg		3.86662722		5.55631262		4.22191831		-0.00016388		-0.00007494		 0.00001177
Mg		-0.24462422		2.50816217		1.48603323		 0.00005499		 0.00018455		-0.00008118
Mg		-0.73387266		6.68997517		4.35795785		-0.00005499		-0.00018455		 0.00008118
Mg		4.35587567		6.81866219		2.00329320		 0.00005221		 0.00017601		-0.00008193
Mg		3.86662722		2.37947423		3.84069697		-0.00005221		-0.00017601		 0.00008193
O		0.98190953		0.86818058		0.76307203		-0.00031839		-0.00051655		 0.00007725
O		7.24059152		8.32995493		5.08091905		 0.00031839		 0.00051655		-0.00007725
O		7.72984088		0.99630634		1.83077353		-0.00051607		 0.00036886		 0.00052076
O		0.49266109		8.20183100		4.01321571		 0.00051607		-0.00036886		-0.00052076
O		5.58241126		5.17868151		1.28033200		-0.00028382		-0.00051578		 0.00008569
O		2.64009163		4.01945491		4.56365908		 0.00028382		 0.00051578		-0.00008569
O		3.12934099		5.30680543		2.34803350		-0.00055946		 0.00037214		 0.00051018
O		5.09316190		3.89133099		3.49595575		 0.00055946		-0.00037214		-0.00051018
O		3.13727133		2.26015935		2.01087758		-0.00032338		 0.00013865		-0.00039061
O		5.08523064		6.93797799		3.83311258		 0.00032338		-0.00013865		 0.00039061
O		5.57448000		2.12510891		0.88546097		-0.00051668		-0.00010068		-0.00027757
O		2.64802197		7.07302751		4.95852919		 0.00051668		 0.00010068		 0.00027757
O		7.73777122		6.57065844		2.52813755		-0.00031216		 0.00015737		-0.00037986
O		0.48473075		2.62747798		3.31585262		 0.00031216		-0.00015737		 0.00037986
O		0.97398011		6.43560893		1.40272094		-0.00054920		-0.00004415		-0.00030799
O		7.24852278		2.76252749		4.44126922		 0.00054920		 0.00004415		 0.00030799
O		2.38943063		1.05654712		4.46408218		 0.00013541		-0.00002692		-0.00001368
O		5.83307042		8.14159022		1.37990890		-0.00013541		 0.00002692		 0.00001368
O		5.34382197		0.86609195		2.87695573		 0.00034025		 0.00008787		 0.00007743
O		2.87867999		8.33204447		2.96703352		-0.00034025		-0.00008787		-0.00007743
O		6.98993144		5.36704714		4.98134215		 0.00014483		-0.00002397		-0.00001026
O		1.23257053		3.83108928		0.86264893		-0.00014483		 0.00002397		 0.00001026
O		0.74332209		5.17659196		3.39421569		 0.00032987		 0.00009213		 0.00007770
O		7.47918080		4.02154354		2.44977355		-0.00032987		-0.00009213		-0.00007770
