# total energy = -24714.7481092 eV

CRYSTAL
PRIMVEC
		9.20099977		0.00000000		0.00000000
		0.00000000		8.62099635		0.34484427
		-0.97849872		0.19237450		4.80947299
PRIMECORD
   40 1
Si		2.54259968		0.82945173		1.04731300		-0.00037508		 0.00008468		 0.00020087
Si		5.67990229		7.98392649		4.10699690		 0.00037508		-0.00008468		-0.00020087
Si		6.16915073		0.84438127		1.42052763		-0.00027794		 0.00027100		-0.00010213
Si		2.05335124		7.96899878		3.73378319		 0.00027794		-0.00027100		 0.00010213
Si		7.14309956		5.13995174		1.21973330		-0.00047366		 0.00003409		 0.00015614
Si		1.07940241		3.67342647		3.93457661		 0.00047366		-0.00003409		-0.00015614
Si		1.56865085		5.15488128		1.59294793		-0.00015255		 0.00018808		-0.00003667
Si		6.65385112		3.65849877		3.56136289		 0.00015255		-0.00018808		 0.00003667
Mg		-0.24462422		7.85613472		1.51468882		-0.00067295		-0.00023631		-0.00015160
Mg		-0.73387266		0.95724441		3.63962108		 0.00067295		 0.00023631		 0.00015160
Mg		4.35587567		3.54563471		1.34226853		-0.00067253		-0.00022918		-0.00015126
Mg		3.86662722		5.26774351		3.81204045		 0.00067253		 0.00022918		 0.00015126
Mg		-0.24462422		2.41197308		1.29692324		 0.00072825		 0.00039358		 0.00054598
Mg		-0.73387266		6.40140605		3.85738758		-0.00072825		-0.00039358		-0.00054598
Mg		4.35587567		6.72247310		1.46934262		 0.00072761		 0.00038520		 0.00054512
Mg		3.86662722		2.09090604		3.68496821		-0.00072761		-0.00038520		-0.00054512
O		0.98190953		0.81469976		0.70003507		-0.00005936		-0.00015199		-0.00010267
O		7.24059152		7.99867845		4.45427576		 0.00005936		 0.00015199		 0.00010267
O		7.72984088		0.85740805		1.76773656		-0.00007751		 0.00012678		 0.00031647
O		0.49266109		7.95597109		3.38657334		 0.00007751		-0.00012678		-0.00031647
O		5.58241126		5.12519978		0.87245536		 0.00001231		-0.00014558		-0.00008788
O		2.64009163		3.68817935		4.28185546		-0.00001231		 0.00014558		 0.00008788
O		3.12934099		5.16790898		1.94015686		-0.00015826		 0.00013473		 0.00029702
O		5.09316190		3.64547107		3.21415305		 0.00015826		-0.00013473		-0.00029702
O		3.13727133		2.11895252		1.84700961		-0.00012335		 0.00000067		 0.00018062
O		5.08523064		6.69442661		3.30730121		 0.00012335		-0.00000067		-0.00018062
O		5.57448000		2.07393571		0.72159301		-0.00009879		-0.00009678		 0.00054932
O		2.64802197		6.73944250		4.43271689		 0.00009879		 0.00009678		-0.00054932
O		7.73777122		6.42945254		2.01942991		-0.00008735		 0.00005833		 0.00020936
O		0.48473075		2.38392568		3.13488091		 0.00008735		-0.00005833		-0.00020936
O		0.97398011		6.38443573		0.89401330		-0.00015135		-0.00001131		 0.00050314
O		7.24852278		2.42894249		4.26029660		 0.00015135		 0.00001131		-0.00050314
O		2.38943063		0.70449387		4.42180359		-0.00007591		 0.00015888		 0.00028678
O		5.83307042		8.10888434		0.73250631		 0.00007591		-0.00015888		-0.00028678
O		5.34382197		0.64100881		2.83467897		-0.00001537		 0.00017259		 0.00069300
O		2.87867999		8.17236940		2.31963185		 0.00001537		-0.00017259		-0.00069300
O		6.98993144		5.01499388		4.59422388		-0.00005837		 0.00016498		 0.00029107
O		1.23257053		3.79838525		0.56008602		 0.00005837		-0.00016498		-0.00029107
O		0.74332209		4.95150883		3.00709927		-0.00003420		 0.00018258		 0.00068710
O		7.47918080		3.86187031		2.14721155		 0.00003420		-0.00018258		-0.00068710
