# total energy = -24707.3961901 eV

CRYSTAL
PRIMVEC
		9.20099977		0.00000000		0.00000000
		0.00000000		8.62099635		-1.03452361
		-0.97849872		-0.57713271		4.80947299
PRIMECORD
   40 1
Si		2.54259968		0.66692987		0.92110197		 0.00024394		-0.00010876		 0.00008359
Si		5.67990229		7.37693377		2.85384926		-0.00024394		 0.00010876		-0.00008359
Si		6.16915073		0.62214492		1.29431568		 0.00006746		-0.00016646		 0.00018450
Si		2.05335124		7.42171872		2.48063370		-0.00006746		 0.00016646		-0.00018450
Si		7.14309956		4.97742988		0.40384200		 0.00056979		 0.00011817		 0.00025006
Si		1.07940241		3.06643376		3.37110922		-0.00056979		-0.00011817		-0.00025006
Si		1.56865085		4.93264494		0.77705571		-0.00009836		-0.00010702		 0.00012643
Si		6.65385112		3.11121870		2.99789367		 0.00009836		 0.00010702		-0.00012643
Mg		-0.24462422		7.66375562		0.26540284		-0.00013015		 0.00011388		-0.00016121
Mg		-0.73387266		0.38010802		3.50954746		 0.00013015		-0.00011388		 0.00016121
Mg		4.35587567		3.35325560		0.78266280		-0.00013130		 0.00009673		-0.00015698
Mg		3.86662722		4.69060804		2.99228750		 0.00013130		-0.00009673		 0.00015698
Mg		-0.24462422		2.21959398		0.91870235		 0.00018229		-0.00006869		-0.00003832
Mg		-0.73387266		5.82426966		2.85624796		-0.00018229		 0.00006869		 0.00003832
Mg		4.35587567		6.53009399		0.40144238		 0.00017454		-0.00004374		-0.00003975
Mg		3.86662722		1.51376964		3.37350792		-0.00017454		 0.00004374		 0.00003975
O		0.98190953		0.70773722		0.57396113		 0.00049476		 0.00036048		-0.00013887
O		7.24059152		7.33612550		3.20098918		-0.00049476		-0.00036048		 0.00013887
O		7.72984088		0.57961330		1.64166354		-0.00003573		-0.00011081		 0.00002043
O		0.49266109		7.46424942		2.13328676		 0.00003573		 0.00011081		-0.00002043
O		5.58241126		5.01823816		0.05670116		 0.00031082		 0.00034396		-0.00018464
O		2.64009163		3.02562548		3.71824914		-0.00031082		-0.00034396		 0.00018464
O		3.12934099		4.89011424		1.12440358		 0.00008431		-0.00011781		 0.00004527
O		5.09316190		3.15375124		2.65054673		-0.00008431		 0.00011781		-0.00004527
O		3.13727133		1.83654072		1.51927368		 0.00040978		-0.00010307		 0.00048274
O		5.08523064		6.20732384		2.25567662		-0.00040978		 0.00010307		-0.00048274
O		5.57448000		1.97159115		0.39385800		 0.00022446		 0.00016667		 0.00040076
O		2.64802197		6.07227341		3.38109323		-0.00022446		-0.00016667		-0.00040076
O		7.73777122		6.14703981		1.00201372		 0.00028093		-0.00032537		 0.00036014
O		0.48473075		1.89682291		2.77293658		-0.00028093		 0.00032537		-0.00036014
O		0.97398011		6.28209025		-0.12340197		 0.00027102		 0.00009832		 0.00043650
O		7.24852278		1.76177339		3.89835319		-0.00027102		-0.00009832		-0.00043650
O		2.38943063		0.00038736		4.33724916		 0.00006943		 0.00017368		 0.00007638
O		5.83307042		8.04347720		-0.56229886		-0.00006943		-0.00017368		-0.00007638
O		5.34382197		0.19084162		2.75012363		-0.00011386		-0.00012011		 0.00009952
O		2.87867999		7.85302202		1.02482576		 0.00011386		 0.00012011		-0.00009952
O		6.98993144		4.31088646		3.81998920		 0.00003373		 0.00015743		 0.00007720
O		1.23257053		3.73297626		-0.04503889		-0.00003373		-0.00015743		-0.00007720
O		0.74332209		4.50134163		2.23286366		-0.00008045		-0.00012947		 0.00010797
O		7.47918080		3.54252109		1.54208572		 0.00008045		 0.00012947		-0.00010797
