
     Program PWSCF v.6.6 starts on  4Feb2024 at 13:34:19 

     This program is part of the open-source Quantum ESPRESSO suite
     for quantum simulation of materials; please cite
         "P. Giannozzi et al., J. Phys.:Condens. Matter 21 395502 (2009);
         "P. Giannozzi et al., J. Phys.:Condens. Matter 29 465901 (2017);
          URL http://www.quantum-espresso.org", 
     in publications or presentations arising from this work. More details at
     http://www.quantum-espresso.org/quote

     Parallel version (MPI & OpenMP), running on      16 processor cores
     Number of MPI processes:                16
     Threads/MPI process:                     1

     MPI processes distributed on     2 nodes
     R & G space division:  proc/nbgrp/npool/nimage =      16
     Fft bands division:     nmany     =       1
     Waiting for input...
     Reading input from standard input

     Current dimensions of program PWSCF are:
     Max number of different atomic species (ntypx) = 10
     Max number of k-points (npk) =  40000
     Max angular momentum in pseudopotentials (lmaxx) =  3

     IMPORTANT: XC functional enforced from input :
     Exchange-correlation= PBE
                           (   1   4   3   4   0   0   0)
     Any further DFT definition will be discarded
     Please, verify this is what you really want


     --------------------------------------------
     Parameters for DFT-D3 Dispersion Correction:
     --------------------------------------------
       Reference C6 values for interpolation: 

         atom   Coordination number   C6
         O          0.000            31.01
         O          0.993            25.63
         O          1.989            20.74
         Mg         0.000          1366.75
         Mg         0.963           902.54
         Mg         1.950           351.12

       Values used:

         atom   Coordination number  R0_AB[au]  C6      C8
         Mg        16.303            3.292    351.12  31436.69
         Mg        16.303            3.292    351.12  31436.69
         Mg        16.303            3.292    351.12  31436.69
         Mg        16.303            3.292    351.12  31436.69
         O          5.819            2.345     20.74    418.58
         O          5.819            2.345     20.74    418.58
         O          5.819            2.345     20.74    418.58
         O          5.819            2.345     20.74    418.58

         Molecular C6 ( Ry / a.u.^6 ) =      8251.69


     Subspace diagonalization in iterative solution of the eigenvalue problem:
     a serial algorithm will be used

     Found symmetry operation: I + (  0.0000 -0.5000 -0.5000)
     This is a supercell, fractional translations are disabled
     Message from routine setup:
     using ibrav=0 with symmetry is DISCOURAGED, use correct ibrav instead
 
     Parallelization info
     --------------------
     sticks:   dense  smooth     PW     G-vecs:    dense   smooth      PW
     Min         125     125     35                 4233     4233     623
     Max         126     126     36                 4236     4236     626
     Sum        2011    2011    565                67753    67753    9983
 


     bravais-lattice index     =            0
     lattice parameter (alat)  =       7.9831  a.u.
     unit-cell volume          =     500.6842 (a.u.)^3
     number of atoms/cell      =            8
     number of atomic types    =            2
     number of electrons       =        64.00
     number of Kohn-Sham states=           38
     kinetic-energy cutoff     =     100.0000  Ry
     charge density cutoff     =     400.0000  Ry
     convergence threshold     =      1.0E-06
     mixing beta               =       0.5000
     number of iterations used =            8  plain     mixing
     Exchange-correlation= PBE
                           (   1   4   3   4   0   0   0)
     nstep                     =          100


     celldm(1)=   7.983061  celldm(2)=   0.000000  celldm(3)=   0.000000
     celldm(4)=   0.000000  celldm(5)=   0.000000  celldm(6)=   0.000000

     crystal axes: (cart. coord. in units of alat)
               a(1) = (   0.996815   0.079745   0.000000 )  
               a(2) = (   0.079745   0.996815   0.000000 )  
               a(3) = (   0.000000   0.000000   0.996815 )  

     reciprocal axes: (cart. coord. in units 2 pi/alat)
               b(1) = (  1.009657 -0.080773  0.000000 )  
               b(2) = ( -0.080773  1.009657  0.000000 )  
               b(3) = (  0.000000  0.000000  1.003195 )  


     PseudoPot. # 1 for Mg read from file:
     ./Mg.upf
     MD5 check sum: 4c04d8c6e0476e83eaecaf72fa8acc4d
     Pseudo is Norm-conserving, Zval = 10.0
     Generated using ONCVPSP code by D. R. Hamann
     Using radial grid of 1510 points,  4 beta functions with: 
                l(1) =   0
                l(2) =   0
                l(3) =   1
                l(4) =   1

     PseudoPot. # 2 for O  read from file:
     ./O.upf
     MD5 check sum: 3e3f909f7470e8921608ab6b1f57bbae
     Pseudo is Norm-conserving + core correction, Zval =  6.0
     Generated using ONCVPSP code by D. R. Hamann
     Using radial grid of  936 points,  5 beta functions with: 
                l(1) =   0
                l(2) =   0
                l(3) =   1
                l(4) =   1
                l(5) =   2

     atomic species   valence    mass     pseudopotential
        Mg            10.00    24.30500     Mg( 1.00)
        O              6.00    15.99900     O ( 1.00)

      8 Sym. Ops., with inversion, found



   Cartesian axes

     site n.     atom                  positions (alat units)
         1           Mg  tau(   1) = (   0.0000000   0.0000000   0.0000000  )
         2           Mg  tau(   2) = (   0.0398726   0.4984076   0.4984076  )
         3           Mg  tau(   3) = (   0.4984076   0.0398726   0.4984076  )
         4           Mg  tau(   4) = (   0.5382803   0.5382803   0.0000000  )
         5           O   tau(   5) = (   0.5382803   0.5382803   0.4984076  )
         6           O   tau(   6) = (   0.4984076   0.0398726   0.0000000  )
         7           O   tau(   7) = (   0.0398726   0.4984076   0.0000000  )
         8           O   tau(   8) = (   0.0000000   0.0000000   0.4984076  )

     number of k points=    27  Gaussian smearing, width (Ry)=  0.0050
                       cart. coord. in units 2pi/alat
        k(    1) = (   0.0000000   0.0000000   0.0000000), wk =   0.0160000
        k(    2) = (   0.0000000   0.0000000   0.2006390), wk =   0.0320000
        k(    3) = (   0.0000000   0.0000000   0.4012780), wk =   0.0320000
        k(    4) = (  -0.0161545   0.2019313   0.0000000), wk =   0.0640000
        k(    5) = (  -0.0161545   0.2019313   0.2006390), wk =   0.1280000
        k(    6) = (  -0.0161545   0.2019313   0.4012780), wk =   0.1280000
        k(    7) = (  -0.0323090   0.4038627   0.0000000), wk =   0.0640000
        k(    8) = (  -0.0323090   0.4038627   0.2006390), wk =   0.1280000
        k(    9) = (  -0.0323090   0.4038627   0.4012780), wk =   0.1280000
        k(   10) = (   0.1857768   0.1857768   0.0000000), wk =   0.0320000
        k(   11) = (   0.1857768   0.1857768   0.2006390), wk =   0.0640000
        k(   12) = (   0.1857768   0.1857768   0.4012780), wk =   0.0640000
        k(   13) = (   0.1696223   0.3877082   0.0000000), wk =   0.0640000
        k(   14) = (   0.1696223   0.3877082   0.2006390), wk =   0.1280000
        k(   15) = (   0.1696223   0.3877082   0.4012780), wk =   0.1280000
        k(   16) = (   0.2342404  -0.4200172   0.0000000), wk =   0.0640000
        k(   17) = (   0.2342404  -0.4200172   0.2006390), wk =   0.1280000
        k(   18) = (   0.2342404  -0.4200172   0.4012780), wk =   0.1280000
        k(   19) = (   0.2180858  -0.2180858   0.0000000), wk =   0.0320000
        k(   20) = (   0.2180858  -0.2180858   0.2006390), wk =   0.0640000
        k(   21) = (   0.2180858  -0.2180858   0.4012780), wk =   0.0640000
        k(   22) = (   0.3715537   0.3715537   0.0000000), wk =   0.0320000
        k(   23) = (   0.3715537   0.3715537   0.2006390), wk =   0.0640000
        k(   24) = (   0.3715537   0.3715537   0.4012780), wk =   0.0640000
        k(   25) = (   0.4361717  -0.4361717   0.0000000), wk =   0.0320000
        k(   26) = (   0.4361717  -0.4361717   0.2006390), wk =   0.0640000
        k(   27) = (   0.4361717  -0.4361717   0.4012780), wk =   0.0640000

     Dense  grid:    67753 G-vectors     FFT dimensions: (  54,  54,  54)

     Estimated max dynamical RAM per process >      15.77 MB

     Estimated total dynamical RAM >     252.34 MB

     Initial potential from superposition of free atoms

     starting charge   63.99678, renormalised to   64.00000
     Starting wfcs are   36 randomized atomic wfcs +    2 random wfcs

     total cpu time spent up to now is        1.3 secs

     Self-consistent Calculation

     iteration #  1     ecut=   100.00 Ry     beta= 0.50
     Davidson diagonalization with overlap
     ethr =  1.00E-02,  avg # of iterations =  4.1

     total cpu time spent up to now is        6.7 secs

     total energy              =    -607.96106881 Ry
     estimated scf accuracy    <       1.59504417 Ry

     iteration #  2     ecut=   100.00 Ry     beta= 0.50
     Davidson diagonalization with overlap
     ethr =  2.49E-03,  avg # of iterations =  2.1

     total cpu time spent up to now is        8.5 secs

     total energy              =    -608.41399565 Ry
     estimated scf accuracy    <       0.24610515 Ry

     iteration #  3     ecut=   100.00 Ry     beta= 0.50
     Davidson diagonalization with overlap
     ethr =  3.85E-04,  avg # of iterations =  2.7

     total cpu time spent up to now is       10.2 secs

     total energy              =    -608.44954447 Ry
     estimated scf accuracy    <       0.01310131 Ry

     iteration #  4     ecut=   100.00 Ry     beta= 0.50
     Davidson diagonalization with overlap
     ethr =  2.05E-05,  avg # of iterations =  4.9

     total cpu time spent up to now is       12.3 secs

     total energy              =    -608.45020537 Ry
     estimated scf accuracy    <       0.00165189 Ry

     iteration #  5     ecut=   100.00 Ry     beta= 0.50
     Davidson diagonalization with overlap
     ethr =  2.58E-06,  avg # of iterations =  3.7

     total cpu time spent up to now is       14.2 secs

     total energy              =    -608.45057807 Ry
     estimated scf accuracy    <       0.00004186 Ry

     iteration #  6     ecut=   100.00 Ry     beta= 0.50
     Davidson diagonalization with overlap
     ethr =  6.54E-08,  avg # of iterations =  2.1

     total cpu time spent up to now is       15.9 secs

     total energy              =    -608.45058779 Ry
     estimated scf accuracy    <       0.00000151 Ry

     iteration #  7     ecut=   100.00 Ry     beta= 0.50
     Davidson diagonalization with overlap
     ethr =  2.36E-09,  avg # of iterations =  2.3

     total cpu time spent up to now is       17.6 secs

     total energy              =    -608.45058714 Ry
     estimated scf accuracy    <       0.00000196 Ry

     iteration #  8     ecut=   100.00 Ry     beta= 0.50
     Davidson diagonalization with overlap
     ethr =  2.36E-09,  avg # of iterations =  2.3

     total cpu time spent up to now is       19.3 secs

     End of self-consistent calculation

          k = 0.0000 0.0000 0.0000 (  8467 PWs)   bands (ev):

   -64.2946 -64.2834 -64.2797 -64.2797 -31.1838 -31.1838 -31.1092 -31.1023
   -31.0811 -31.0629 -31.0629 -31.0439 -31.0384 -31.0307 -31.0307 -31.0088
    -9.0165  -7.4802  -7.3638  -7.3636   4.1147   4.1732   4.1732   5.9686
     6.8687   6.8687   6.9168   6.9169   7.6765   7.9193   8.1279   8.9059
    12.7343  15.9531  17.4300  18.2230  18.2230  20.8465

          k = 0.0000 0.0000 0.2006 (  8461 PWs)   bands (ev):

   -64.2936 -64.2845 -64.2797 -64.2797 -31.1827 -31.1827 -31.1033 -31.1003
   -31.0831 -31.0636 -31.0636 -31.0460 -31.0405 -31.0317 -31.0317 -31.0121
    -8.8726  -7.6281  -7.3421  -7.3419   4.3299   4.3616   4.3617   6.1023
     6.5109   6.5109   6.7678   6.7679   7.4010   7.4747   8.0019   8.7981
    13.5749  16.2386  17.9424  17.9424  18.7980  18.7980

          k = 0.0000 0.0000 0.4013 (  8472 PWs)   bands (ev):

   -64.2908 -64.2873 -64.2797 -64.2797 -31.1810 -31.1810 -31.0949 -31.0884
   -31.0869 -31.0650 -31.0647 -31.0647 -31.0334 -31.0334 -31.0317 -31.0208
    -8.4922  -8.0159  -7.3067  -7.3065   4.8921   4.8921   4.9992   5.7288
     5.7288   6.1012   6.4757   6.5378   6.5379   6.9945   8.2283   8.5313
    15.1828  16.3997  18.8829  18.8829  19.2328  20.0550

          k =-0.0162 0.2019 0.0000 (  8452 PWs)   bands (ev):

   -64.2932 -64.2831 -64.2811 -64.2800 -31.1761 -31.1743 -31.1101 -31.1048
   -31.0910 -31.0673 -31.0605 -31.0432 -31.0407 -31.0325 -31.0290 -31.0115
    -8.8652  -7.5278  -7.4494  -7.3550   4.3120   4.3744   4.4134   5.8148
     6.5380   6.7142   6.9770   7.0127   7.2504   7.5373   7.9876   8.4397
    13.5649  16.5244  17.7663  17.9746  18.0070  18.7839

          k =-0.0162 0.2019 0.2006 (  8462 PWs)   bands (ev):

   -64.2922 -64.2840 -64.2810 -64.2801 -31.1752 -31.1739 -31.1110 -31.0974
   -31.0936 -31.0685 -31.0626 -31.0481 -31.0395 -31.0316 -31.0292 -31.0133
    -8.7289  -7.5808  -7.4890  -7.3484   4.4150   4.5041   4.5591   5.9009
     6.0225   6.6107   6.6812   6.9565   7.0241   7.6469   7.7373   8.4600
    14.1608  16.7523  18.0975  18.1081  18.5492  19.3522

          k =-0.0162 0.2019 0.4013 (  8464 PWs)   bands (ev):

   -64.2897 -64.2866 -64.2807 -64.2804 -31.1737 -31.1733 -31.1073 -31.1001
   -31.0829 -31.0694 -31.0668 -31.0649 -31.0303 -31.0301 -31.0295 -31.0199
    -8.3715  -7.9314  -7.4088  -7.3544   4.7644   4.8390   5.0832   5.2235
     5.6628   5.8508   6.5366   6.8915   6.9968   7.1754   7.9289   8.2604
    15.5041  16.7198  18.5817  18.6550  19.4321  19.7700

          k =-0.0323 0.4039 0.0000 (  8452 PWs)   bands (ev):

   -64.2895 -64.2848 -64.2821 -64.2810 -31.1558 -31.1491 -31.1306 -31.1172
   -31.0932 -31.0788 -31.0544 -31.0468 -31.0409 -31.0368 -31.0244 -31.0178
    -8.4625  -7.9515  -7.3881  -7.3520   4.8768   4.8983   5.1182   5.4501
     5.7045   6.1830   6.5299   6.8213   7.2801   7.2997   7.6496   7.8036
    15.2003  16.8579  17.8870  18.7439  19.1881  19.2546

          k =-0.0323 0.4039 0.2006 (  8451 PWs)   bands (ev):

   -64.2887 -64.2845 -64.2828 -64.2813 -31.1554 -31.1503 -31.1309 -31.1197
   -31.0901 -31.0793 -31.0591 -31.0535 -31.0365 -31.0331 -31.0232 -31.0172
    -8.3493  -7.8748  -7.4759  -7.3865   4.6555   4.9459   4.9679   5.3647
     5.7507   5.7798   6.9738   6.9938   7.0573   7.3483   7.5387   7.8194
    15.5240  17.0977  17.9444  18.6912  19.1058  19.4812

          k =-0.0323 0.4039 0.4013 (  8444 PWs)   bands (ev):

   -64.2869 -64.2846 -64.2835 -64.2823 -31.1544 -31.1527 -31.1298 -31.1253
   -31.0808 -31.0768 -31.0688 -31.0672 -31.0272 -31.0268 -31.0231 -31.0196
    -8.0606  -7.7243  -7.6906  -7.5020   4.6214   4.7043   4.7141   5.0440
     5.6679   6.3353   6.3378   6.9773   7.3659   7.4308   7.5124   7.8204
    16.3728  17.4235  17.5788  18.0657  19.7398  19.9455

          k = 0.1858 0.1858 0.0000 (  8463 PWs)   bands (ev):

   -64.2932 -64.2841 -64.2800 -64.2800 -31.1845 -31.1845 -31.1019 -31.0995
   -31.0823 -31.0634 -31.0634 -31.0488 -31.0445 -31.0251 -31.0251 -31.0205
    -8.7828  -7.5077  -7.4182  -7.4180   4.4296   4.4297   4.4438   5.2721
     6.5071   6.7564   6.7566   6.8279   6.8279   7.7027   8.0006   8.7985
    14.1661  17.3130  18.1698  18.4635  18.4635  20.4458

          k = 0.1858 0.1858 0.2006 (  8467 PWs)   bands (ev):

   -64.2923 -64.2850 -64.2800 -64.2800 -31.1849 -31.1849 -31.1004 -31.0978
   -31.0839 -31.0631 -31.0631 -31.0561 -31.0429 -31.0257 -31.0257 -31.0179
    -8.6550  -7.6193  -7.3946  -7.3945   4.2429   4.4801   4.4801   5.8082
     5.8695   6.2883   6.2884   7.0637   7.0638   7.8267   8.0687   8.7132
    14.5866  17.5789  17.7424  17.7424  19.3892  19.5290

          k = 0.1858 0.1858 0.4013 (  8461 PWs)   bands (ev):

   -64.2901 -64.2873 -64.2800 -64.2800 -31.1855 -31.1854 -31.0935 -31.0926
   -31.0882 -31.0763 -31.0625 -31.0625 -31.0305 -31.0267 -31.0267 -31.0203
    -8.3237  -7.9256  -7.3561  -7.3559   4.3195   4.5516   4.5516   4.9228
     5.9489   5.9490   6.7009   7.0351   7.0352   7.4905   8.2543   8.4999
    15.7837  17.3339  17.7171  17.7172  18.8224  19.8262

          k = 0.1696 0.3877 0.0000 (  8463 PWs)   bands (ev):

   -64.2907 -64.2844 -64.2825 -64.2797 -31.1788 -31.1740 -31.1054 -31.0937
   -31.0916 -31.0736 -31.0559 -31.0520 -31.0500 -31.0304 -31.0258 -31.0168
    -8.4516  -7.7584  -7.5405  -7.3149   4.7757   4.8534   4.9371   4.9440
     5.6362   5.9916   6.5646   7.1327   7.1498   7.2385   7.7575   8.3779
    15.6015  17.0630  18.3406  18.7787  18.9711  19.2424

          k = 0.1696 0.3877 0.2006 (  8456 PWs)   bands (ev):

   -64.2901 -64.2850 -64.2822 -64.2800 -31.1799 -31.1760 -31.1046 -31.0954
   -31.0945 -31.0712 -31.0646 -31.0566 -31.0418 -31.0247 -31.0235 -31.0177
    -8.3486  -7.6944  -7.6065  -7.3330   4.1528   4.6385   4.7613   5.0626
     5.8521   5.8941   6.8743   6.9534   7.3177   7.5674   7.8296   8.2776
    15.7600  16.7963  17.7712  18.5419  19.3030  19.7027

          k = 0.1696 0.3877 0.4013 (  8449 PWs)   bands (ev):

   -64.2885 -64.2866 -64.2815 -64.2807 -31.1812 -31.1796 -31.1034 -31.0996
   -31.0926 -31.0819 -31.0654 -31.0597 -31.0283 -31.0223 -31.0208 -31.0198
    -8.0911  -7.8045  -7.5461  -7.4065   3.9130   4.2726   4.4107   4.4654
     6.0620   6.4916   6.8620   7.3153   7.3960   7.5499   7.9953   8.1289
    16.4345  16.6710  16.9782  17.7002  19.0972  19.6670

          k = 0.2342-0.4200 0.0000 (  8467 PWs)   bands (ev):

   -64.2866 -64.2866 -64.2838 -64.2803 -31.1591 -31.1478 -31.1257 -31.1207
   -31.0873 -31.0779 -31.0602 -31.0477 -31.0452 -31.0362 -31.0300 -31.0103
    -8.2395  -7.9947  -7.5694  -7.2946   4.6786   4.9562   5.1671   5.5047
     5.7228   5.9510   6.3822   6.8067   7.2491   7.4465   7.6023   7.6452
    15.4720  17.1823  17.5915  18.7527  19.1828  19.5204

          k = 0.2342-0.4200 0.2006 (  8456 PWs)   bands (ev):

   -64.2863 -64.2860 -64.2841 -64.2809 -31.1607 -31.1511 -31.1246 -31.1212
   -31.0846 -31.0818 -31.0704 -31.0503 -31.0372 -31.0292 -31.0278 -31.0119
    -8.1360  -7.9300  -7.5831  -7.3674   4.2910   4.5851   4.7658   5.5606
     5.9449   6.1197   6.6558   7.0578   7.2802   7.3728   7.5574   7.7356
    15.5102  17.2333  17.3002  18.5802  19.3618  19.4118

          k = 0.2342-0.4200 0.4013 (  8450 PWs)   bands (ev):

   -64.2856 -64.2848 -64.2844 -64.2825 -31.1615 -31.1575 -31.1228 -31.1219
   -31.0900 -31.0842 -31.0698 -31.0580 -31.0268 -31.0236 -31.0224 -31.0163
    -7.8752  -7.7820  -7.6477  -7.5789   3.9370   4.0637   4.6075   4.9318
     6.4129   6.6858   6.8890   7.1528   7.2382   7.4763   7.5329   7.6743
    15.8308  16.5388  17.5304  18.0488  19.4994  19.5536

          k = 0.2181-0.2181 0.0000 (  8445 PWs)   bands (ev):

   -64.2907 -64.2825 -64.2825 -64.2816 -31.1520 -31.1520 -31.1329 -31.1161
   -31.0992 -31.0661 -31.0661 -31.0419 -31.0368 -31.0368 -31.0363 -31.0079
    -8.6618  -7.5784  -7.5783  -7.3611   4.5627   4.5627   4.5660   6.1900
     6.5490   6.5529   6.5530   6.9946   6.9947   7.2432   7.5984   7.9406
    14.1421  16.6147  18.3283  18.3283  18.3971  18.3972

          k = 0.2181-0.2181 0.2006 (  8444 PWs)   bands (ev):

   -64.2898 -64.2825 -64.2825 -64.2825 -31.1511 -31.1511 -31.1344 -31.1195
   -31.0913 -31.0717 -31.0717 -31.0463 -31.0336 -31.0327 -31.0327 -31.0106
    -8.5336  -7.5533  -7.5532  -7.4779   4.5141   4.5142   4.6171   6.2764
     6.2766   6.3043   6.5995   6.7824   7.1716   7.1717   7.4389   8.0795
    14.5229  16.6940  18.2783  18.2783  18.9389  18.9389

          k = 0.2181-0.2181 0.4013 (  8455 PWs)   bands (ev):

   -64.2875 -64.2847 -64.2825 -64.2825 -31.1495 -31.1495 -31.1334 -31.1271
   -31.0791 -31.0791 -31.0750 -31.0584 -31.0279 -31.0279 -31.0264 -31.0177
    -8.1995  -7.7943  -7.5122  -7.5120   4.3939   4.3940   4.9300   5.6406
     6.1208   6.1209   6.6206   7.0511   7.1997   7.1997   7.3105   7.8442
    15.4626  16.4078  18.7372  18.7372  19.3695  19.3695

          k = 0.3716 0.3716 0.0000 (  8468 PWs)   bands (ev):

   -64.2898 -64.2864 -64.2806 -64.2806 -31.1860 -31.1860 -31.0929 -31.0863
   -31.0832 -31.0643 -31.0643 -31.0613 -31.0535 -31.0428 -31.0158 -31.0158
    -8.2288  -7.7196  -7.5033  -7.5032   4.5292   4.7451   4.7452   4.9815
     5.3608   6.5185   6.5186   6.6106   6.9730   6.9731   8.2260   8.5306
    16.5378  17.5098  17.5098  18.2528  19.5681  20.0534

          k = 0.3716 0.3716 0.2006 (  8468 PWs)   bands (ev):

   -64.2895 -64.2867 -64.2806 -64.2806 -31.1885 -31.1885 -31.0930 -31.0923
   -31.0869 -31.0776 -31.0623 -31.0623 -31.0413 -31.0303 -31.0158 -31.0158
    -8.1549  -7.7392  -7.4768  -7.4767   3.8813   4.3617   4.4203   4.4203
     6.2191   6.7183   6.7184   7.1102   7.1103   7.1684   8.2530   8.4993
    16.3741  16.7368  16.7368  17.9629  19.7133  19.9655

          k = 0.3716 0.3716 0.4013 (  8437 PWs)   bands (ev):

   -64.2886 -64.2875 -64.2806 -64.2805 -31.1924 -31.1924 -31.1007 -31.0951
   -31.0906 -31.0885 -31.0592 -31.0592 -31.0264 -31.0219 -31.0159 -31.0159
    -7.9833  -7.8220  -7.4334  -7.4333   3.4383   3.6312   4.0186   4.0186
     6.8366   6.8367   7.2096   7.4168   7.4169   7.5999   8.3256   8.4197
    15.9633  15.9633  16.3654  17.0385  19.5668  19.7672

          k = 0.4362-0.4362 0.0000 (  8466 PWs)   bands (ev):

   -64.2872 -64.2872 -64.2832 -64.2797 -31.1803 -31.1742 -31.0991 -31.0991
   -31.0762 -31.0712 -31.0712 -31.0544 -31.0480 -31.0480 -31.0207 -31.0099
    -7.8940  -7.8938  -7.8647  -7.3227   4.6231   4.6232   4.9092   5.2096
     5.7620   6.0479   6.0480   6.7345   7.1377   7.2902   8.0848   8.0849
    16.3302  17.6250  17.7538  17.7538  19.8548  19.9941

          k = 0.4362-0.4362 0.2006 (  8480 PWs)   bands (ev):

   -64.2872 -64.2872 -64.2829 -64.2801 -31.1827 -31.1774 -31.0990 -31.0990
   -31.0840 -31.0840 -31.0718 -31.0544 -31.0358 -31.0358 -31.0197 -31.0109
    -7.8639  -7.8638  -7.7915  -7.3497   4.0627   4.0628   4.4357   4.8126
     6.3982   6.6783   6.6784   6.7853   7.2351   7.4184   8.0737   8.0738
    15.9028  16.9258  17.4454  17.4454  19.7956  19.7956

          k = 0.4362-0.4362 0.4013 (  8447 PWs)   bands (ev):

   -64.2872 -64.2872 -64.2820 -64.2809 -31.1855 -31.1834 -31.0990 -31.0990
   -31.0965 -31.0965 -31.0630 -31.0565 -31.0243 -31.0243 -31.0169 -31.0136
    -7.8146  -7.8144  -7.6183  -7.4474   3.4971   3.4971   4.0903   4.2553
     6.9208   7.0927   7.2008   7.4084   7.4085   7.5977   8.0104   8.0105
    15.5327  15.9403  16.9787  16.9788  19.7639  19.7640

     the Fermi energy is    10.3059 ev

!    total energy              =    -608.45058752 Ry
     estimated scf accuracy    <       0.00000004 Ry
     smearing contrib. (-TS)   =      -0.00000000 Ry
     internal energy E=F+TS    =    -608.45058752 Ry

     The total energy is F=E-TS. E is the sum of the following terms:
     one-electron contribution =    -295.13459788 Ry
     hartree contribution      =     165.13963441 Ry
     xc contribution           =     -97.98685262 Ry
     ewald contribution        =    -380.35983249 Ry
     DFT-D3 Dispersion         =      -0.10893893 Ry

     convergence has been achieved in   8 iterations

     Forces acting on atoms (cartesian axes, Ry/au):

     atom    1 type  1   force =     0.00000000    0.00000000    0.00000000
     atom    2 type  1   force =     0.00000000    0.00000000    0.00000000
     atom    3 type  1   force =     0.00000000    0.00000000    0.00000000
     atom    4 type  1   force =     0.00000000    0.00000000    0.00000000
     atom    5 type  2   force =     0.00000000    0.00000000    0.00000000
     atom    6 type  2   force =     0.00000000    0.00000000    0.00000000
     atom    7 type  2   force =     0.00000000    0.00000000    0.00000000
     atom    8 type  2   force =     0.00000000    0.00000000    0.00000000

     Total force =     0.000000     Total SCF correction =     0.000000

     BFGS Geometry Optimization

     bfgs converged in   1 scf cycles and   0 bfgs steps
     (criteria: energy <  1.0E-04 Ry, force <  1.0E-03 Ry/Bohr)

     End of BFGS Geometry Optimization

     Final energy   =    -608.4505875167 Ry
Begin final coordinates

ATOMIC_POSITIONS (angstrom)
Mg            0.0000000000        0.0000000000        0.0000000000
Mg            0.1684400000        2.1055000000        2.1055000000
Mg            2.1055000000        0.1684400000        2.1055000000
Mg            2.2739400000        2.2739400000        0.0000000000
O             2.2739400000        2.2739400000        2.1055000000
O             2.1055000000        0.1684400000        0.0000000000
O             0.1684400000        2.1055000000        0.0000000000
O             0.0000000000        0.0000000000        2.1055000000
End final coordinates


 
     init_run     :      0.96s CPU      1.00s WALL (       1 calls)
     electrons    :     17.67s CPU     18.04s WALL (       1 calls)
     forces       :      4.65s CPU      4.67s WALL (       1 calls)

     Called by init_run:
     wfcinit      :      0.67s CPU      0.69s WALL (       1 calls)
     potinit      :      0.10s CPU      0.11s WALL (       1 calls)
     hinit0       :      0.14s CPU      0.14s WALL (       1 calls)

     Called by electrons:
     c_bands      :     12.14s CPU     12.45s WALL (       8 calls)
     sum_band     :      1.97s CPU      2.02s WALL (       8 calls)
     v_of_rho     :      0.08s CPU      0.08s WALL (       9 calls)
     mix_rho      :      0.01s CPU      0.01s WALL (       8 calls)

     Called by c_bands:
     init_us_2    :      0.16s CPU      0.18s WALL (     486 calls)
     cegterg      :     11.67s CPU     11.94s WALL (     216 calls)

     Called by *egterg:
     cdiaghg      :      1.53s CPU      1.54s WALL (     865 calls)
     h_psi        :      9.84s CPU     10.11s WALL (     892 calls)
     g_psi        :      0.03s CPU      0.03s WALL (     649 calls)

     Called by h_psi:
     h_psi:calbec :      0.33s CPU      0.34s WALL (     892 calls)
     vloc_psi     :      9.22s CPU      9.46s WALL (     892 calls)
     add_vuspsi   :      0.26s CPU      0.26s WALL (     892 calls)

     General routines
     calbec       :      0.37s CPU      0.39s WALL (    1000 calls)
     fft          :      0.17s CPU      0.18s WALL (     100 calls)
     ffts         :      0.00s CPU      0.00s WALL (       8 calls)
     fftw         :     10.42s CPU     10.69s WALL (   50430 calls)
 
     Parallel routines
     fft_scatt_xy :      1.39s CPU      1.43s WALL (   50538 calls)
     fft_scatt_yz :      5.52s CPU      5.67s WALL (   50538 calls)
 
     PWSCF        :     23.55s CPU     23.99s WALL

 
   This run was terminated on:  13:34:43   4Feb2024            

=------------------------------------------------------------------------------=
   JOB DONE.
=------------------------------------------------------------------------------=
