# total energy = -12340.0554053 eV	

CRYSTAL	
PRIMVEC	
		4.44490009		0.00000000		0.00000000	
		0.00000000		4.66479819		-0.55977738	
		0.00000000		-0.77452829		6.45439942	
PRIMCOORD
   20 1	
O		0.47515982		2.02447997		1.34742701		-0.00010963		 0.00016302		 0.00024594	
O		3.96974027		1.86579215		4.54719814		 0.00010963		-0.00016302		-0.00024594	
O		2.69760987		-0.46660783		4.82708594		-0.00010963		-0.00016302		-0.00024594	
O		1.74729023		4.35688129		1.06753921		 0.00010963		 0.00016302		 0.00024594	
O		0.83697513		0.46914320		3.51947812		 0.00055635		-0.00021852		 0.00071085	
O		3.60792496		3.42113026		2.37514614		-0.00055635		 0.00021852		-0.00071085	
O		3.05942518		1.08872983		2.65503395		 0.00055635		 0.00021852		-0.00071085	
O		1.38547491		2.80154319		3.23958987		-0.00055635		-0.00021852		 0.00071085	
O		3.60792496		3.71219698		-0.05041717		 0.00062780		 0.00021179		-0.00088417	
O		0.83697513		0.17807514		5.94504098		-0.00062780		-0.00021179		 0.00088417	
O		1.38547491		2.51047513		5.66515318		 0.00062780		-0.00021179		 0.00088417	
O		3.05942518		1.37979700		0.22947108		-0.00062780		 0.00021179		-0.00088417	
Mg		2.30334723		2.51988187		1.28797781		-0.00010299		-0.00034135		-0.00003931	
Mg		2.14155286		1.37038981		4.60664601		 0.00010299		 0.00034135		 0.00003931	
Mg		0.08089718		3.70279024		4.32675820		-0.00010299		 0.00034135		 0.00003931	
Mg		4.36400291		0.18748189		1.56786606		 0.00010299		-0.00034135		-0.00003931	
Si		2.22245005		-0.38726414		3.22720015		0.00000000		0.00000000		0.00000000	
Si		0.00000000		1.94513584		2.94731191		0.00000000		0.00000000		0.00000000	
Si		2.22245005		0.00000000		0.00000000		-0.00000000		0.00000000		0.00000000	
Si		0.00000000		2.33239998		-0.27988780		-0.00000000		0.00000000		0.00000000	
