# total energy = -20637.16194 eV

CRYSTAL
PRIMVEC
		4.74599980		0.00000000		0.00000000
		0.00000000		10.17999872		0.00000000
		0.00000000		0.00000000		5.52779886
PRIMECORD
   28 1
Si		2.02227004		0.95590179		1.38194971		-0.00024739		 0.00069226		0.00000000
Si		2.72372881		9.22409741		4.14584962		 0.00024739		-0.00069226		0.00000000
Si		4.39527089		4.13409805		4.14584962		-0.00024739		-0.00069226		-0.00000000
Si		0.35072891		6.04590162		1.38194971		 0.00024739		 0.00069226		-0.00000000
Mg		0.00000000		0.00000000		0.00000000		0.00000000		-0.00000000		0.00000000
Mg		2.37299990		5.08999984		0.00000000		0.00000000		0.00000000		0.00000000
Mg		0.00000000		0.00000000		2.76389990		0.00000000		0.00000000		0.00000000
Mg		2.37299990		5.08999984		2.76389990		0.00000000		0.00000000		0.00000000
Mg		4.70518373		2.82189602		1.38194971		-0.00053440		 0.00045761		0.00000000
Mg		0.04081607		7.35810365		4.14584962		 0.00053440		-0.00045761		0.00000000
Mg		2.33218383		2.26810381		4.14584962		-0.00053440		-0.00045761		-0.00000000
Mg		2.41381503		7.91189586		1.38194971		 0.00053440		 0.00045761		-0.00000000
O		3.63590997		0.93554192		1.38194971		 0.00006126		 0.00027467		0.00000000
O		1.11008888		9.24445775		4.14584962		-0.00006126		-0.00027467		0.00000000
O		1.26291102		4.15445791		4.14584962		 0.00006126		-0.00027467		0.00000000
O		3.48308878		6.02554176		1.38194971		-0.00006126		 0.00027467		0.00000000
O		1.04506916		4.54944185		1.38194971		-0.00002513		 0.00013563		-0.00000000
O		3.70093065		5.63055782		4.14584962		 0.00002513		-0.00013563		-0.00000000
O		3.41806906		0.54055799		4.14584962		-0.00002513		-0.00013563		-0.00000000
O		1.32793074		9.63944168		1.38194971		 0.00002513		 0.00013563		-0.00000000
O		1.31796415		1.65730408		0.18407598		-0.00023448		-0.00043395		 0.00044190
O		3.42803566		8.52269559		5.34372383		 0.00023448		 0.00043395		-0.00044190
O		3.69096405		3.43269575		5.34372383		-0.00023448		 0.00043395		-0.00044190
O		1.05503576		6.74730392		0.18407598		 0.00023448		-0.00043395		 0.00044190
O		3.42803566		8.52269559		2.94797588		 0.00023448		 0.00043395		 0.00044190
O		1.31796415		1.65730408		2.57982393		-0.00023448		-0.00043395		-0.00044190
O		1.05503576		6.74730392		2.57982393		 0.00023448		-0.00043395		-0.00044190
O		3.69096405		3.43269575		2.94797588		-0.00023448		 0.00043395		 0.00044190
