# total energy = -20638.0544578 eV

CRYSTAL
PRIMVEC
		4.74599980		0.00000000		0.00000000
		0.00000000		10.17999872		0.00000000
		0.00000000		0.00000000		5.67719819
PRIMECORD
   28 1
Si		2.02227004		0.95590179		1.41929978		-0.00036810		 0.00086185		0.00000000
Si		2.72372881		9.22409741		4.25789983		 0.00036810		-0.00086185		-0.00000000
Si		4.39527089		4.13409805		4.25789983		-0.00036810		-0.00086185		0.00000000
Si		0.35072891		6.04590162		1.41929978		 0.00036810		 0.00086185		0.00000000
Mg		0.00000000		0.00000000		0.00000000		0.00000000		0.00000000		0.00000000
Mg		2.37299990		5.08999984		0.00000000		0.00000000		0.00000000		-0.00000000
Mg		0.00000000		0.00000000		2.83860004		0.00000000		0.00000000		0.00000000
Mg		2.37299990		5.08999984		2.83860004		0.00000000		0.00000000		0.00000000
Mg		4.70518373		2.82189602		1.41929978		-0.00050897		 0.00042096		0.00000000
Mg		0.04081607		7.35810365		4.25789983		 0.00050897		-0.00042096		-0.00000000
Mg		2.33218383		2.26810381		4.25789983		-0.00050897		-0.00042096		0.00000000
Mg		2.41381503		7.91189586		1.41929978		 0.00050897		 0.00042096		0.00000000
O		3.63590997		0.93554192		1.41929978		-0.00003975		 0.00048950		-0.00000000
O		1.11008888		9.24445775		4.25789983		 0.00003975		-0.00048950		-0.00000000
O		1.26291102		4.15445791		4.25789983		-0.00003975		-0.00048950		-0.00000000
O		3.48308878		6.02554176		1.41929978		 0.00003975		 0.00048950		-0.00000000
O		1.04506916		4.54944185		1.41929978		 0.00011181		-0.00004451		0.00000000
O		3.70093065		5.63055782		4.25789983		-0.00011181		 0.00004451		0.00000000
O		3.41806906		0.54055799		4.25789983		 0.00011181		 0.00004451		0.00000000
O		1.32793074		9.63944168		1.41929978		-0.00011181		-0.00004451		-0.00000000
O		1.31796415		1.65730408		0.18905121		-0.00006808		-0.00038120		 0.00037152
O		3.42803566		8.52269559		5.48814888		 0.00006808		 0.00038120		-0.00037152
O		3.69096405		3.43269575		5.48814888		-0.00006808		 0.00038120		-0.00037152
O		1.05503576		6.74730392		0.18905121		 0.00006808		-0.00038120		 0.00037152
O		3.42803566		8.52269559		3.02765077		 0.00006808		 0.00038120		 0.00037152
O		1.31796415		1.65730408		2.64954884		-0.00006808		-0.00038120		-0.00037152
O		1.05503576		6.74730392		2.64954884		 0.00006808		-0.00038120		-0.00037152
O		3.69096405		3.43269575		3.02765077		-0.00006808		 0.00038120		 0.00037152
