# total energy = -20637.5834477 eV

CRYSTAL
PRIMVEC
		4.74599980		0.00000000		0.00000000
		0.00000000		10.17999872		0.00000000
		0.00000000		0.00000000		6.57359890
PRIMECORD
   28 1
Si		2.02227004		0.95590179		1.64339972		 0.00009029		-0.00022890		0.00000000
Si		2.72372881		9.22409741		4.93019965		-0.00009029		 0.00022890		0.00000000
Si		4.39527089		4.13409805		4.93019965		 0.00009029		 0.00022890		0.00000000
Si		0.35072891		6.04590162		1.64339972		-0.00009029		-0.00022890		0.00000000
Mg		0.00000000		0.00000000		0.00000000		0.00000000		0.00000000		0.00000000
Mg		2.37299990		5.08999984		0.00000000		0.00000000		0.00000000		0.00000000
Mg		0.00000000		0.00000000		3.28679992		0.00000000		0.00000000		0.00000000
Mg		2.37299990		5.08999984		3.28679992		0.00000000		0.00000000		0.00000000
Mg		4.70518373		2.82189602		1.64339972		 0.00001490		 0.00012059		0.00000000
Mg		0.04081607		7.35810365		4.93019965		-0.00001490		-0.00012059		0.00000000
Mg		2.33218383		2.26810381		4.93019965		 0.00001490		-0.00012059		0.00000000
Mg		2.41381503		7.91189586		1.64339972		-0.00001490		 0.00012059		0.00000000
O		3.63590997		0.93554192		1.64339972		 0.00024711		 0.00076895		0.00000000
O		1.11008888		9.24445775		4.93019965		-0.00024711		-0.00076895		0.00000000
O		1.26291102		4.15445791		4.93019965		 0.00024711		-0.00076895		0.00000000
O		3.48308878		6.02554176		1.64339972		-0.00024711		 0.00076895		0.00000000
O		1.04506916		4.54944185		1.64339972		 0.00003616		-0.00032995		-0.00000000
O		3.70093065		5.63055782		4.93019965		-0.00003616		 0.00032995		-0.00000000
O		3.41806906		0.54055799		4.93019965		 0.00003616		 0.00032995		0.00000000
O		1.32793074		9.63944168		1.64339972		-0.00003616		-0.00032995		-0.00000000
O		1.31796415		1.65730408		0.21890117		-0.00011640		-0.00038696		-0.00011762
O		3.42803566		8.52269559		6.35469868		 0.00011640		 0.00038696		 0.00011762
O		3.69096405		3.43269575		6.35469868		-0.00011640		 0.00038696		 0.00011762
O		1.05503576		6.74730392		0.21890117		 0.00011640		-0.00038696		-0.00011762
O		3.42803566		8.52269559		3.50570062		 0.00011640		 0.00038696		-0.00011762
O		1.31796415		1.65730408		3.06789875		-0.00011640		-0.00038696		 0.00011762
O		1.05503576		6.74730392		3.06789875		 0.00011640		-0.00038696		 0.00011762
O		3.69096405		3.43269575		3.50570062		-0.00011640		 0.00038696		-0.00011762
