
     Program PWSCF v.6.6 starts on 13Jul2024 at 16: 6:22 

     This program is part of the open-source Quantum ESPRESSO suite
     for quantum simulation of materials; please cite
         "P. Giannozzi et al., J. Phys.:Condens. Matter 21 395502 (2009);
         "P. Giannozzi et al., J. Phys.:Condens. Matter 29 465901 (2017);
          URL http://www.quantum-espresso.org", 
     in publications or presentations arising from this work. More details at
     http://www.quantum-espresso.org/quote

     Parallel version (MPI & OpenMP), running on      16 processor cores
     Number of MPI processes:                16
     Threads/MPI process:                     1

     MPI processes distributed on     1 nodes
     R & G space division:  proc/nbgrp/npool/nimage =      16
     Fft bands division:     nmany     =       1
     Waiting for input...
     Reading input from standard input

     Current dimensions of program PWSCF are:
     Max number of different atomic species (ntypx) = 10
     Max number of k-points (npk) =  40000
     Max angular momentum in pseudopotentials (lmaxx) =  3

     IMPORTANT: XC functional enforced from input :
     Exchange-correlation= PBE
                           (   1   4   3   4   0   0   0)
     Any further DFT definition will be discarded
     Please, verify this is what you really want


     --------------------------------------------
     Parameters for DFT-D3 Dispersion Correction:
     --------------------------------------------
       Reference C6 values for interpolation: 

         atom   Coordination number   C6
         O          0.000            31.01
         O          0.993            25.63
         O          1.989            20.74
         Mg         0.000          1366.75
         Mg         0.963           902.54
         Mg         1.950           351.12

       Values used:

         atom   Coordination number  R0_AB[au]  C6      C8
         Mg        16.582            3.292    351.12  31436.69
         Mg        16.582            3.292    351.12  31436.69
         Mg        16.582            3.292    351.12  31436.69
         Mg        16.582            3.292    351.12  31436.69
         O          5.817            2.345     20.74    418.58
         O          5.817            2.345     20.74    418.58
         O          5.817            2.345     20.74    418.58
         O          5.817            2.345     20.74    418.58

         Molecular C6 ( Ry / a.u.^6 ) =      8251.69


     Subspace diagonalization in iterative solution of the eigenvalue problem:
     a serial algorithm will be used

     Found symmetry operation: I + (  0.0000 -0.5000 -0.5000)
     This is a supercell, fractional translations are disabled
     Message from routine setup:
     using ibrav=0 with symmetry is DISCOURAGED, use correct ibrav instead
 
     Parallelization info
     --------------------
     sticks:   dense  smooth     PW     G-vecs:    dense   smooth      PW
     Min         126     126     35                 4252     4252     619
     Max         127     127     36                 4255     4255     623
     Sum        2025    2025    561                68051    68051    9939
 


     bravais-lattice index     =            0
     lattice parameter (alat)  =       7.9576  a.u.
     unit-cell volume          =     503.9092 (a.u.)^3
     number of atoms/cell      =            8
     number of atomic types    =            2
     number of electrons       =        64.00
     number of Kohn-Sham states=           38
     kinetic-energy cutoff     =     100.0000  Ry
     charge density cutoff     =     400.0000  Ry
     convergence threshold     =      1.0E-06
     mixing beta               =       0.5000
     number of iterations used =            8  plain     mixing
     Exchange-correlation= PBE
                           (   1   4   3   4   0   0   0)

     celldm(1)=   7.957637  celldm(2)=   0.000000  celldm(3)=   0.000000
     celldm(4)=   0.000000  celldm(5)=   0.000000  celldm(6)=   0.000000

     crystal axes: (cart. coord. in units of alat)
               a(1) = (   1.000000   0.000000   0.000000 )  
               a(2) = (   0.000000   1.000000   0.000000 )  
               a(3) = (   0.000000   0.000000   1.000000 )  

     reciprocal axes: (cart. coord. in units 2 pi/alat)
               b(1) = (  1.000000  0.000000  0.000000 )  
               b(2) = (  0.000000  1.000000  0.000000 )  
               b(3) = (  0.000000  0.000000  1.000000 )  


     PseudoPot. # 1 for Mg read from file:
     ./Mg.upf
     MD5 check sum: 4c04d8c6e0476e83eaecaf72fa8acc4d
     Pseudo is Norm-conserving, Zval = 10.0
     Generated using ONCVPSP code by D. R. Hamann
     Using radial grid of 1510 points,  4 beta functions with: 
                l(1) =   0
                l(2) =   0
                l(3) =   1
                l(4) =   1

     PseudoPot. # 2 for O  read from file:
     ./O.upf
     MD5 check sum: 3e3f909f7470e8921608ab6b1f57bbae
     Pseudo is Norm-conserving + core correction, Zval =  6.0
     Generated using ONCVPSP code by D. R. Hamann
     Using radial grid of  936 points,  5 beta functions with: 
                l(1) =   0
                l(2) =   0
                l(3) =   1
                l(4) =   1
                l(5) =   2

     atomic species   valence    mass     pseudopotential
        Mg            10.00    24.30500     Mg( 1.00)
        O              6.00    15.99900     O ( 1.00)

     48 Sym. Ops., with inversion, found



   Cartesian axes

     site n.     atom                  positions (alat units)
         1           Mg  tau(   1) = (   0.0000000   0.0000000   0.0000000  )
         2           Mg  tau(   2) = (   0.0000000   0.5000000   0.5000000  )
         3           Mg  tau(   3) = (   0.5000000   0.0000000   0.5000000  )
         4           Mg  tau(   4) = (   0.5000000   0.5000000   0.0000000  )
         5           O   tau(   5) = (   0.5000000   0.5000000   0.5000000  )
         6           O   tau(   6) = (   0.5000000   0.0000000   0.0000000  )
         7           O   tau(   7) = (   0.0000000   0.5000000   0.0000000  )
         8           O   tau(   8) = (   0.0000000   0.0000000   0.5000000  )

     number of k points=    10  Gaussian smearing, width (Ry)=  0.0050
                       cart. coord. in units 2pi/alat
        k(    1) = (   0.0000000   0.0000000   0.0000000), wk =   0.0160000
        k(    2) = (   0.0000000   0.0000000   0.2000000), wk =   0.0960000
        k(    3) = (   0.0000000   0.0000000   0.4000000), wk =   0.0960000
        k(    4) = (   0.0000000   0.2000000   0.2000000), wk =   0.1920000
        k(    5) = (   0.0000000   0.2000000   0.4000000), wk =   0.3840000
        k(    6) = (   0.0000000   0.4000000   0.4000000), wk =   0.1920000
        k(    7) = (   0.2000000   0.2000000   0.2000000), wk =   0.1280000
        k(    8) = (   0.2000000   0.2000000   0.4000000), wk =   0.3840000
        k(    9) = (   0.2000000   0.4000000   0.4000000), wk =   0.3840000
        k(   10) = (   0.4000000   0.4000000   0.4000000), wk =   0.1280000

     Dense  grid:    68051 G-vectors     FFT dimensions: (  54,  54,  54)

     Estimated max dynamical RAM per process >      10.61 MB

     Estimated total dynamical RAM >     169.68 MB

     Initial potential from superposition of free atoms

     starting charge   63.99678, renormalised to   64.00000
     Starting wfcs are   36 randomized atomic wfcs +    2 random wfcs

     total cpu time spent up to now is        0.6 secs

     Self-consistent Calculation

     iteration #  1     ecut=   100.00 Ry     beta= 0.50
     Davidson diagonalization with overlap
     ethr =  1.00E-02,  avg # of iterations =  3.8

     total cpu time spent up to now is        5.9 secs

     total energy              =    -608.03204114 Ry
     estimated scf accuracy    <       1.57371216 Ry

     iteration #  2     ecut=   100.00 Ry     beta= 0.50
     Davidson diagonalization with overlap
     ethr =  2.46E-03,  avg # of iterations =  2.3

     total cpu time spent up to now is        6.5 secs

     total energy              =    -608.48016851 Ry
     estimated scf accuracy    <       0.24141450 Ry

     iteration #  3     ecut=   100.00 Ry     beta= 0.50
     Davidson diagonalization with overlap
     ethr =  3.77E-04,  avg # of iterations =  2.5

     total cpu time spent up to now is        7.2 secs

     total energy              =    -608.51529702 Ry
     estimated scf accuracy    <       0.01287009 Ry

     iteration #  4     ecut=   100.00 Ry     beta= 0.50
     Davidson diagonalization with overlap
     ethr =  2.01E-05,  avg # of iterations =  4.8

     total cpu time spent up to now is        8.1 secs

     total energy              =    -608.51592059 Ry
     estimated scf accuracy    <       0.00170116 Ry

     iteration #  5     ecut=   100.00 Ry     beta= 0.50
     Davidson diagonalization with overlap
     ethr =  2.66E-06,  avg # of iterations =  3.1

     total cpu time spent up to now is        9.0 secs

     total energy              =    -608.51631831 Ry
     estimated scf accuracy    <       0.00005168 Ry

     iteration #  6     ecut=   100.00 Ry     beta= 0.50
     Davidson diagonalization with overlap
     ethr =  8.07E-08,  avg # of iterations =  2.0

     total cpu time spent up to now is        9.8 secs

     total energy              =    -608.51633127 Ry
     estimated scf accuracy    <       0.00000182 Ry

     iteration #  7     ecut=   100.00 Ry     beta= 0.50
     Davidson diagonalization with overlap
     ethr =  2.84E-09,  avg # of iterations =  3.3

     total cpu time spent up to now is       10.7 secs

     total energy              =    -608.51633017 Ry
     estimated scf accuracy    <       0.00000294 Ry

     iteration #  8     ecut=   100.00 Ry     beta= 0.50
     Davidson diagonalization with overlap
     ethr =  2.84E-09,  avg # of iterations =  2.0

     total cpu time spent up to now is       11.7 secs

     End of self-consistent calculation

          k = 0.0000 0.0000 0.0000 (  8409 PWs)   bands (ev):

   -64.2904 -64.2789 -64.2789 -64.2789 -31.1156 -31.1156 -31.1156 -31.0716
   -31.0716 -31.0716 -31.0716 -31.0716 -31.0716 -31.0431 -31.0431 -31.0431
    -9.1286  -7.5855  -7.5854  -7.5854   4.0215   4.0215   4.0215   6.7283
     6.7283   6.7283   6.7284   6.7284   6.7284   8.0631   8.0631   8.0631
    12.8378  17.2907  17.2907  18.0836  18.0836  18.0836

          k = 0.0000 0.0000 0.2000 (  8501 PWs)   bands (ev):

   -64.2893 -64.2800 -64.2789 -64.2789 -31.1114 -31.1114 -31.1095 -31.0758
   -31.0758 -31.0723 -31.0723 -31.0689 -31.0689 -31.0508 -31.0458 -31.0458
    -8.9846  -7.7348  -7.5637  -7.5636   4.2128   4.2128   4.2478   6.3643
     6.3643   6.5783   6.5784   6.8367   6.8367   7.3531   7.9121   7.9121
    13.6615  17.6208  17.8675  17.8675  17.9372  18.6672

          k = 0.0000 0.0000 0.4000 (  8542 PWs)   bands (ev):

   -64.2864 -64.2829 -64.2789 -64.2789 -31.1003 -31.1003 -31.0927 -31.0868
   -31.0868 -31.0735 -31.0734 -31.0703 -31.0617 -31.0617 -31.0529 -31.0529
    -8.6035  -8.1254  -7.5281  -7.5281   4.7601   4.7601   4.9403   5.5608
     5.5608   6.0582   6.3468   6.3469   7.1366   7.1366   7.5446   7.5446
    15.3076  16.9480  18.6064  19.1278  19.1278  19.9456

          k = 0.0000 0.2000 0.2000 (  8512 PWs)   bands (ev):

   -64.2883 -64.2799 -64.2799 -64.2790 -31.1080 -31.1080 -31.1073 -31.0847
   -31.0729 -31.0729 -31.0682 -31.0682 -31.0670 -31.0618 -31.0486 -31.0439
    -8.8484  -7.6962  -7.6962  -7.5568   4.3404   4.3404   4.4002   5.7445
     6.4888   6.4888   6.7056   6.7559   6.7559   6.8624   7.7348   7.9489
    14.2550  18.0103  18.1462  18.3983  18.3983  19.3507

          k = 0.0000 0.2000 0.4000 (  8538 PWs)   bands (ev):

   -64.2857 -64.2825 -64.2796 -64.2793 -31.1033 -31.0972 -31.0966 -31.0953
   -31.0835 -31.0800 -31.0663 -31.0654 -31.0650 -31.0584 -31.0561 -31.0487
    -8.4905  -8.0489  -7.6163  -7.5625   4.6046   4.8051   4.9352   5.0637
     5.6579   5.7140   6.6970   6.8173   6.8339   7.1834   7.3062   7.6582
    15.6413  17.2265  18.7471  18.9615  19.1571  19.2683

          k = 0.0000 0.4000 0.4000 (  8510 PWs)   bands (ev):

   -64.2838 -64.2815 -64.2815 -64.2803 -31.1033 -31.1032 -31.1031 -31.0945
   -31.0869 -31.0750 -31.0750 -31.0645 -31.0568 -31.0549 -31.0549 -31.0480
    -8.2020  -7.8655  -7.8655  -7.6776   4.5832   4.5832   4.6169   4.9879
     5.4318   6.1433   6.1434   6.7440   7.2116   7.2689   7.2689   7.6309
    16.5378  17.7944  17.7944  18.2789  19.6319  20.0773

          k = 0.2000 0.2000 0.2000 (  8517 PWs)   bands (ev):

   -64.2874 -64.2799 -64.2799 -64.2799 -31.1085 -31.1085 -31.1085 -31.0765
   -31.0764 -31.0764 -31.0728 -31.0648 -31.0648 -31.0648 -31.0461 -31.0461
    -8.7204  -7.6720  -7.6719  -7.6719   4.3531   4.3531   4.3531   6.1068
     6.1091   6.1091   6.1091   6.9532   6.9532   6.9532   7.8300   7.8300
    14.6514  17.9658  17.9659  17.9659  19.2158  19.2158

          k = 0.2000 0.2000 0.4000 (  8510 PWs)   bands (ev):

   -64.2851 -64.2822 -64.2799 -64.2799 -31.1096 -31.1095 -31.1041 -31.0906
   -31.0789 -31.0789 -31.0623 -31.0623 -31.0616 -31.0590 -31.0518 -31.0499
    -8.3875  -7.9849  -7.6322  -7.6322   4.3410   4.3410   4.5446   5.1844
     5.8452   5.8452   6.8371   6.9496   6.9496   7.2024   7.5215   7.5359
    15.7320  17.1039  18.2408  18.2408  19.4441  20.0339

          k = 0.2000 0.4000 0.4000 (  8499 PWs)   bands (ev):

   -64.2835 -64.2815 -64.2815 -64.2806 -31.1157 -31.1135 -31.1135 -31.1059
   -31.0720 -31.0655 -31.0654 -31.0567 -31.0559 -31.0548 -31.0547 -31.0488
    -8.1287  -7.8374  -7.8374  -7.7010   4.0448   4.1381   4.1381   4.4785
     6.1921   6.6031   6.6031   7.1652   7.2497   7.2894   7.2895   7.5889
    16.2057  17.1555  17.1555  17.5297  20.1206  20.3552

          k = 0.4000 0.4000 0.4000 (  8465 PWs)   bands (ev):

   -64.2826 -64.2815 -64.2814 -64.2814 -31.1246 -31.1246 -31.1246 -31.1205
   -31.0565 -31.0564 -31.0564 -31.0537 -31.0537 -31.0537 -31.0510 -31.0510
    -7.9570  -7.7914  -7.7913  -7.7913   3.6472   3.6472   3.6472   3.8282
     7.0930   7.0930   7.0930   7.3514   7.3514   7.3514   7.4810   7.4810
    15.9512  16.4583  16.4583  16.4583  20.5584  20.5584

     the Fermi energy is    10.0544 ev

!    total energy              =    -608.51633070 Ry
     estimated scf accuracy    <       0.00000002 Ry
     smearing contrib. (-TS)   =      -0.00000000 Ry
     internal energy E=F+TS    =    -608.51633070 Ry

     The total energy is F=E-TS. E is the sum of the following terms:
     one-electron contribution =    -297.28496250 Ry
     hartree contribution      =     166.02680051 Ry
     xc contribution           =     -97.98770218 Ry
     ewald contribution        =    -379.16241501 Ry
     DFT-D3 Dispersion         =      -0.10805152 Ry

     convergence has been achieved in   8 iterations

     Forces acting on atoms (cartesian axes, Ry/au):

     atom    1 type  1   force =     0.00000000    0.00000000    0.00000000
     atom    2 type  1   force =     0.00000000    0.00000000    0.00000000
     atom    3 type  1   force =     0.00000000    0.00000000    0.00000000
     atom    4 type  1   force =     0.00000000    0.00000000    0.00000000
     atom    5 type  2   force =     0.00000000    0.00000000    0.00000000
     atom    6 type  2   force =     0.00000000    0.00000000    0.00000000
     atom    7 type  2   force =     0.00000000    0.00000000    0.00000000
     atom    8 type  2   force =     0.00000000    0.00000000    0.00000000

     Total force =     0.000000     Total SCF correction =     0.000000


     Computing stress (Cartesian axis) and pressure

          total   stress  (Ry/bohr**3)                   (kbar)     P=       12.08
   0.00008210   0.00000000   0.00000000           12.08        0.00        0.00
   0.00000000   0.00008210   0.00000000            0.00       12.08        0.00
   0.00000000   0.00000000   0.00008210            0.00        0.00       12.08


     Writing output data file ./out/MgO.save/
 
     init_run     :      0.40s CPU      0.42s WALL (       1 calls)
     electrons    :     10.93s CPU     11.08s WALL (       1 calls)
     forces       :      4.72s CPU      4.74s WALL (       1 calls)
     stress       :      5.60s CPU      5.62s WALL (       1 calls)

     Called by init_run:
     wfcinit      :      0.24s CPU      0.25s WALL (       1 calls)
     potinit      :      0.03s CPU      0.03s WALL (       1 calls)
     hinit0       :      0.08s CPU      0.09s WALL (       1 calls)

     Called by electrons:
     c_bands      :      5.39s CPU      5.49s WALL (       8 calls)
     sum_band     :      0.95s CPU      0.97s WALL (       8 calls)
     v_of_rho     :      0.09s CPU      0.10s WALL (       9 calls)
     mix_rho      :      0.01s CPU      0.01s WALL (       8 calls)

     Called by c_bands:
     init_us_2    :      0.06s CPU      0.07s WALL (     190 calls)
     cegterg      :      5.20s CPU      5.30s WALL (      80 calls)

     Called by *egterg:
     cdiaghg      :      0.52s CPU      0.53s WALL (     318 calls)
     h_psi        :      4.46s CPU      4.56s WALL (     328 calls)
     g_psi        :      0.01s CPU      0.01s WALL (     238 calls)

     Called by h_psi:
     h_psi:calbec :      0.14s CPU      0.15s WALL (     328 calls)
     vloc_psi     :      4.22s CPU      4.30s WALL (     328 calls)
     add_vuspsi   :      0.09s CPU      0.09s WALL (     328 calls)

     General routines
     calbec       :      1.16s CPU      1.16s WALL (     378 calls)
     fft          :      0.36s CPU      0.37s WALL (     114 calls)
     ffts         :      0.00s CPU      0.00s WALL (       8 calls)
     fftw         :      4.88s CPU      4.98s WALL (   18678 calls)
 
     Parallel routines
     fft_scatt_xy :      0.53s CPU      0.54s WALL (   18800 calls)
     fft_scatt_yz :      3.34s CPU      3.40s WALL (   18800 calls)
 
     PWSCF        :     21.87s CPU     22.12s WALL

 
   This run was terminated on:  16: 6:44  13Jul2024            

=------------------------------------------------------------------------------=
   JOB DONE.
=------------------------------------------------------------------------------=
