
     Program PWSCF v.6.6 starts on  4Feb2024 at 13:33:50 

     This program is part of the open-source Quantum ESPRESSO suite
     for quantum simulation of materials; please cite
         "P. Giannozzi et al., J. Phys.:Condens. Matter 21 395502 (2009);
         "P. Giannozzi et al., J. Phys.:Condens. Matter 29 465901 (2017);
          URL http://www.quantum-espresso.org", 
     in publications or presentations arising from this work. More details at
     http://www.quantum-espresso.org/quote

     Parallel version (MPI & OpenMP), running on      16 processor cores
     Number of MPI processes:                16
     Threads/MPI process:                     1

     MPI processes distributed on     2 nodes
     R & G space division:  proc/nbgrp/npool/nimage =      16
     Fft bands division:     nmany     =       1
     Waiting for input...
     Reading input from standard input

     Current dimensions of program PWSCF are:
     Max number of different atomic species (ntypx) = 10
     Max number of k-points (npk) =  40000
     Max angular momentum in pseudopotentials (lmaxx) =  3

     IMPORTANT: XC functional enforced from input :
     Exchange-correlation= PBE
                           (   1   4   3   4   0   0   0)
     Any further DFT definition will be discarded
     Please, verify this is what you really want


     --------------------------------------------
     Parameters for DFT-D3 Dispersion Correction:
     --------------------------------------------
       Reference C6 values for interpolation: 

         atom   Coordination number   C6
         O          0.000            31.01
         O          0.993            25.63
         O          1.989            20.74
         Mg         0.000          1366.75
         Mg         0.963           902.54
         Mg         1.950           351.12

       Values used:

         atom   Coordination number  R0_AB[au]  C6      C8
         Mg        15.752            3.292    351.12  31436.69
         Mg        15.752            3.292    351.12  31436.69
         Mg        15.752            3.292    351.12  31436.69
         Mg        15.752            3.292    351.12  31436.69
         O          5.830            2.345     20.74    418.58
         O          5.830            2.345     20.74    418.58
         O          5.830            2.345     20.74    418.58
         O          5.830            2.345     20.74    418.58

         Molecular C6 ( Ry / a.u.^6 ) =      8251.69


     Subspace diagonalization in iterative solution of the eigenvalue problem:
     a serial algorithm will be used

     Found symmetry operation: I + ( -0.0000 -0.5000 -0.5000)
     This is a supercell, fractional translations are disabled
     Message from routine setup:
     using ibrav=0 with symmetry is DISCOURAGED, use correct ibrav instead
 
     Parallelization info
     --------------------
     sticks:   dense  smooth     PW     G-vecs:    dense   smooth      PW
     Min         122     122     34                 4140     4140     622
     Max         123     123     35                 4143     4143     625
     Sum        1967    1967    549                66261    66261    9963
 


     bravais-lattice index     =            0
     lattice parameter (alat)  =       8.0589  a.u.
     unit-cell volume          =     491.0092 (a.u.)^3
     number of atoms/cell      =            8
     number of atomic types    =            2
     number of electrons       =        64.00
     number of Kohn-Sham states=           38
     kinetic-energy cutoff     =     100.0000  Ry
     charge density cutoff     =     400.0000  Ry
     convergence threshold     =      1.0E-06
     mixing beta               =       0.5000
     number of iterations used =            8  plain     mixing
     Exchange-correlation= PBE
                           (   1   4   3   4   0   0   0)
     nstep                     =          100


     celldm(1)=   8.058851  celldm(2)=   0.000000  celldm(3)=   0.000000
     celldm(4)=   0.000000  celldm(5)=   0.000000  celldm(6)=   0.000000

     crystal axes: (cart. coord. in units of alat)
               a(1) = (   0.987441  -0.157991   0.000000 )  
               a(2) = (  -0.157991   0.987441   0.000000 )  
               a(3) = (   0.000000   0.000000   0.987441 )  

     reciprocal axes: (cart. coord. in units 2 pi/alat)
               b(1) = (  1.039326  0.166292  0.000000 )  
               b(2) = (  0.166292  1.039326  0.000000 )  
               b(3) = (  0.000000  0.000000  1.012719 )  


     PseudoPot. # 1 for Mg read from file:
     ./Mg.upf
     MD5 check sum: 4c04d8c6e0476e83eaecaf72fa8acc4d
     Pseudo is Norm-conserving, Zval = 10.0
     Generated using ONCVPSP code by D. R. Hamann
     Using radial grid of 1510 points,  4 beta functions with: 
                l(1) =   0
                l(2) =   0
                l(3) =   1
                l(4) =   1

     PseudoPot. # 2 for O  read from file:
     ./O.upf
     MD5 check sum: 3e3f909f7470e8921608ab6b1f57bbae
     Pseudo is Norm-conserving + core correction, Zval =  6.0
     Generated using ONCVPSP code by D. R. Hamann
     Using radial grid of  936 points,  5 beta functions with: 
                l(1) =   0
                l(2) =   0
                l(3) =   1
                l(4) =   1
                l(5) =   2

     atomic species   valence    mass     pseudopotential
        Mg            10.00    24.30500     Mg( 1.00)
        O              6.00    15.99900     O ( 1.00)

      8 Sym. Ops., with inversion, found



   Cartesian axes

     site n.     atom                  positions (alat units)
         1           Mg  tau(   1) = (   0.0000000   0.0000000   0.0000000  )
         2           Mg  tau(   2) = (  -0.0789953   0.4937203   0.4937203  )
         3           Mg  tau(   3) = (   0.4937203  -0.0789953   0.4937203  )
         4           Mg  tau(   4) = (   0.4147251   0.4147251   0.0000000  )
         5           O   tau(   5) = (   0.4147251   0.4147251   0.4937203  )
         6           O   tau(   6) = (   0.4937203  -0.0789953   0.0000000  )
         7           O   tau(   7) = (  -0.0789953   0.4937203   0.0000000  )
         8           O   tau(   8) = (   0.0000000   0.0000000   0.4937203  )

     number of k points=    27  Gaussian smearing, width (Ry)=  0.0050
                       cart. coord. in units 2pi/alat
        k(    1) = (   0.0000000   0.0000000   0.0000000), wk =   0.0160000
        k(    2) = (   0.0000000   0.0000000   0.2025438), wk =   0.0320000
        k(    3) = (   0.0000000   0.0000000   0.4050876), wk =   0.0320000
        k(    4) = (   0.0332584   0.2078652   0.0000000), wk =   0.0640000
        k(    5) = (   0.0332584   0.2078652   0.2025438), wk =   0.1280000
        k(    6) = (   0.0332584   0.2078652   0.4050876), wk =   0.1280000
        k(    7) = (   0.0665169   0.4157303   0.0000000), wk =   0.0640000
        k(    8) = (   0.0665169   0.4157303   0.2025438), wk =   0.1280000
        k(    9) = (   0.0665169   0.4157303   0.4050876), wk =   0.1280000
        k(   10) = (   0.2411236   0.2411236   0.0000000), wk =   0.0320000
        k(   11) = (   0.2411236   0.2411236   0.2025438), wk =   0.0640000
        k(   12) = (   0.2411236   0.2411236   0.4050876), wk =   0.0640000
        k(   13) = (   0.2743820   0.4489888   0.0000000), wk =   0.0640000
        k(   14) = (   0.2743820   0.4489888   0.2025438), wk =   0.1280000
        k(   15) = (   0.2743820   0.4489888   0.4050876), wk =   0.1280000
        k(   16) = (   0.1413483  -0.3824719   0.0000000), wk =   0.0640000
        k(   17) = (   0.1413483  -0.3824719   0.2025438), wk =   0.1280000
        k(   18) = (   0.1413483  -0.3824719   0.4050876), wk =   0.1280000
        k(   19) = (   0.1746067  -0.1746067   0.0000000), wk =   0.0320000
        k(   20) = (   0.1746067  -0.1746067   0.2025438), wk =   0.0640000
        k(   21) = (   0.1746067  -0.1746067   0.4050876), wk =   0.0640000
        k(   22) = (   0.4822472   0.4822472   0.0000000), wk =   0.0320000
        k(   23) = (   0.4822472   0.4822472   0.2025438), wk =   0.0640000
        k(   24) = (   0.4822472   0.4822472   0.4050876), wk =   0.0640000
        k(   25) = (   0.3492135  -0.3492135   0.0000000), wk =   0.0320000
        k(   26) = (   0.3492135  -0.3492135   0.2025438), wk =   0.0640000
        k(   27) = (   0.3492135  -0.3492135   0.4050876), wk =   0.0640000

     Dense  grid:    66261 G-vectors     FFT dimensions: (  54,  54,  54)

     Estimated max dynamical RAM per process >      15.53 MB

     Estimated total dynamical RAM >     248.51 MB

     Initial potential from superposition of free atoms

     starting charge   63.99678, renormalised to   64.00000
     Starting wfcs are   36 randomized atomic wfcs +    2 random wfcs

     total cpu time spent up to now is        1.2 secs

     Self-consistent Calculation

     iteration #  1     ecut=   100.00 Ry     beta= 0.50
     Davidson diagonalization with overlap
     ethr =  1.00E-02,  avg # of iterations =  3.8

     total cpu time spent up to now is        7.4 secs

     total energy              =    -607.72345844 Ry
     estimated scf accuracy    <       1.67224113 Ry

     iteration #  2     ecut=   100.00 Ry     beta= 0.50
     Davidson diagonalization with overlap
     ethr =  2.61E-03,  avg # of iterations =  2.1

     total cpu time spent up to now is        9.5 secs

     total energy              =    -608.19685018 Ry
     estimated scf accuracy    <       0.26431167 Ry

     iteration #  3     ecut=   100.00 Ry     beta= 0.50
     Davidson diagonalization with overlap
     ethr =  4.13E-04,  avg # of iterations =  2.1

     total cpu time spent up to now is       11.6 secs

     total energy              =    -608.23437318 Ry
     estimated scf accuracy    <       0.01376367 Ry

     iteration #  4     ecut=   100.00 Ry     beta= 0.50
     Davidson diagonalization with overlap
     ethr =  2.15E-05,  avg # of iterations =  3.9

     total cpu time spent up to now is       13.8 secs

     total energy              =    -608.23518709 Ry
     estimated scf accuracy    <       0.00169725 Ry

     iteration #  5     ecut=   100.00 Ry     beta= 0.50
     Davidson diagonalization with overlap
     ethr =  2.65E-06,  avg # of iterations =  3.3

     total cpu time spent up to now is       16.0 secs

     total energy              =    -608.23556012 Ry
     estimated scf accuracy    <       0.00005151 Ry

     iteration #  6     ecut=   100.00 Ry     beta= 0.50
     Davidson diagonalization with overlap
     ethr =  8.05E-08,  avg # of iterations =  2.7

     total cpu time spent up to now is       18.1 secs

     total energy              =    -608.23557124 Ry
     estimated scf accuracy    <       0.00000222 Ry

     iteration #  7     ecut=   100.00 Ry     beta= 0.50
     Davidson diagonalization with overlap
     ethr =  3.46E-09,  avg # of iterations =  2.0

     total cpu time spent up to now is       20.1 secs

     total energy              =    -608.23557065 Ry
     estimated scf accuracy    <       0.00000170 Ry

     iteration #  8     ecut=   100.00 Ry     beta= 0.50
     Davidson diagonalization with overlap
     ethr =  2.65E-09,  avg # of iterations =  2.2

     total cpu time spent up to now is       22.1 secs

     End of self-consistent calculation

          k = 0.0000 0.0000 0.0000 (  8275 PWs)   bands (ev):

   -64.3185 -64.3081 -64.2881 -64.2881 -31.3347 -31.3347 -31.1352 -31.1210
   -31.0995 -31.0428 -31.0427 -31.0334 -31.0299 -30.9909 -30.9909 -30.9900
    -8.6896  -7.1769  -6.6750  -6.6749   4.3895   4.6247   4.6247   5.5755
     7.3150   7.3150   7.4998   7.4999   7.6673   8.3152   9.6363  10.3131
    12.4978  14.7417  17.8647  18.6569  18.6569  20.2955

          k = 0.0000 0.0000 0.2025 (  8285 PWs)   bands (ev):

   -64.3175 -64.3091 -64.2881 -64.2880 -31.3343 -31.3343 -31.1338 -31.1223
   -31.0940 -31.0434 -31.0433 -31.0405 -31.0261 -30.9938 -30.9913 -30.9913
    -8.5463  -7.3201  -6.6536  -6.6534   4.5702   4.8008   4.8009   5.7326
     6.9800   6.9800   7.3539   7.3540   7.4075   7.5377   9.6941  10.2408
    13.4014  15.1350  18.1609  18.1609  19.2080  19.2080

          k = 0.0000 0.0000 0.4051 (  8286 PWs)   bands (ev):

   -64.3149 -64.3117 -64.2881 -64.2880 -31.3336 -31.3336 -31.1302 -31.1259
   -31.0787 -31.0583 -31.0443 -31.0443 -31.0161 -31.0038 -30.9919 -30.9919
    -8.1684  -7.6986  -6.6186  -6.6184   5.1702   5.2615   5.2616   6.1762
     6.2246   6.2815   6.2816   6.8059   7.1284   7.1285   9.8517  10.0601
    14.9785  15.7278  18.5305  18.5306  20.4116  20.4116

          k = 0.0333 0.2079 0.0000 (  8284 PWs)   bands (ev):

   -64.3156 -64.3062 -64.2910 -64.2900 -31.3159 -31.3148 -31.1544 -31.1418
   -31.0940 -31.0481 -31.0419 -31.0343 -31.0267 -30.9951 -30.9912 -30.9906
    -8.5150  -7.1177  -6.8895  -6.7119   4.6059   4.8696   4.9191   5.5252
     7.0719   7.1349   7.3397   7.4135   7.5530   8.2077   9.0853   9.6408
    13.3716  15.3105  18.0685  18.2210  18.4419  19.0553

          k = 0.0333 0.2079 0.2025 (  8297 PWs)   bands (ev):

   -64.3147 -64.3071 -64.2909 -64.2901 -31.3155 -31.3146 -31.1535 -31.1432
   -31.0894 -31.0489 -31.0437 -31.0415 -31.0225 -30.9942 -30.9931 -30.9911
    -8.3791  -7.2453  -6.8504  -6.7057   4.6329   5.0046   5.0459   5.8172
     6.3778   6.7600   7.0106   7.5277   7.5521   7.9340   9.1579   9.6684
    13.9823  15.6481  18.0748  18.3137  18.9594  19.3947

          k = 0.0333 0.2079 0.4051 (  8292 PWs)   bands (ev):

   -64.3124 -64.3094 -64.2906 -64.2903 -31.3147 -31.3144 -31.1508 -31.1468
   -31.0764 -31.0583 -31.0494 -31.0474 -31.0124 -31.0010 -30.9925 -30.9914
    -8.0235  -7.5884  -6.7689  -6.7131   4.9601   5.2540   5.5466   5.7011
     5.7381   6.2718   6.4703   7.2524   7.4912   7.5545   9.3451   9.5599
    15.2785  16.0667  18.2359  18.2808  19.9279  20.2382

          k = 0.0665 0.4157 0.0000 (  8311 PWs)   bands (ev):

   -64.3080 -64.3012 -64.2986 -64.2950 -31.2663 -31.2620 -31.2046 -31.1959
   -31.0798 -31.0623 -31.0395 -31.0366 -31.0176 -31.0055 -30.9917 -30.9915
    -8.0429  -7.4247  -6.9741  -6.8193   5.2265   5.3347   5.4712   5.6694
     6.1413   6.5718   7.0848   7.7139   7.7995   7.9219   7.9610   8.5914
    14.9859  16.6827  16.7288  18.3397  19.1654  19.6486

          k = 0.0665 0.4157 0.2025 (  8308 PWs)   bands (ev):

   -64.3073 -64.3018 -64.2982 -64.2953 -31.2659 -31.2625 -31.2041 -31.1971
   -31.0778 -31.0625 -31.0441 -31.0432 -31.0133 -31.0024 -30.9918 -30.9911
    -7.9295  -7.3472  -7.0602  -6.8539   4.8496   5.2375   5.4707   6.0296
     6.0529   6.0556   7.4538   7.4833   7.8491   8.0184   8.0473   8.5193
    15.3009  16.8689  16.9113  18.2067  19.5196  20.2371

          k = 0.0665 0.4157 0.4051 (  8286 PWs)   bands (ev):

   -64.3056 -64.3035 -64.2973 -64.2962 -31.2649 -31.2636 -31.2025 -31.1998
   -31.0704 -31.0604 -31.0573 -31.0533 -31.0039 -30.9962 -30.9956 -30.9919
    -7.6406  -7.3057  -7.1610  -6.9704   4.7963   5.0275   5.1258   5.2574
     6.3394   6.8062   6.9261   7.5418   7.8348   7.9222   8.3134   8.5020
    16.0980  16.8711  17.2436  17.6893  19.9079  19.9992

          k = 0.2411 0.2411 0.0000 (  8285 PWs)   bands (ev):

   -64.3089 -64.3005 -64.2967 -64.2967 -31.2637 -31.2637 -31.2060 -31.1952
   -31.0852 -31.0507 -31.0507 -31.0318 -31.0167 -31.0019 -31.0019 -30.9845
    -8.2140  -7.0807  -7.0806  -6.9128   4.9502   5.1228   5.1228   5.9349
     6.9360   6.9361   7.5496   7.5496   7.6944   7.7508   8.1839   8.3228
    13.9692  15.5869  18.2197  18.2197  18.9287  18.9287

          k = 0.2411 0.2411 0.2025 (  8288 PWs)   bands (ev):

   -64.3081 -64.3013 -64.2967 -64.2967 -31.2634 -31.2634 -31.2056 -31.1968
   -31.0801 -31.0546 -31.0545 -31.0370 -31.0136 -30.9990 -30.9990 -30.9875
    -8.0856  -7.0546  -7.0545  -7.0294   4.9851   4.9851   5.0443   6.0726
     6.7948   6.7949   7.2878   7.4865   7.7115   7.7116   7.8942   8.7042
    14.3764  15.8041  18.4513  18.4513  18.9562  18.9562

          k = 0.2411 0.2411 0.4051 (  8293 PWs)   bands (ev):

   -64.3060 -64.3034 -64.2967 -64.2966 -31.2628 -31.2628 -31.2039 -31.2005
   -31.0668 -31.0601 -31.0601 -31.0505 -31.0055 -30.9956 -30.9950 -30.9950
    -7.7511  -7.3456  -7.0119  -7.0117   4.7443   4.7443   5.4352   6.2272
     6.4574   6.7664   6.7665   6.9918   7.7804   7.7805   8.2402   8.6002
    15.2663  15.9124  18.8353  18.8353  19.1635  19.1635

          k = 0.2744 0.4490 0.0000 (  8297 PWs)   bands (ev):

   -64.3057 -64.3031 -64.2999 -64.2941 -31.2684 -31.2613 -31.2014 -31.1982
   -31.0697 -31.0661 -31.0496 -31.0329 -31.0158 -31.0058 -31.0043 -30.9820
    -7.6695  -7.6282  -7.2095  -6.7067   4.9989   5.3807   5.6628   5.9952
     6.0313   6.5586   6.6078   7.0417   7.7236   8.1472   8.2605   8.5595
    15.2778  16.7293  16.9630  18.1218  19.9863  20.4344

          k = 0.2744 0.4490 0.2025 (  8285 PWs)   bands (ev):

   -64.3054 -64.3033 -64.2993 -64.2946 -31.2684 -31.2626 -31.2009 -31.1983
   -31.0705 -31.0663 -31.0574 -31.0366 -31.0097 -31.0019 -31.0013 -30.9839
    -7.5652  -7.5626  -7.2207  -6.7822   4.4990   4.8779   5.4216   6.1798
     6.2228   6.6035   7.0019   7.4783   7.5261   8.2029   8.2999   8.4515
    15.3283  16.6288  17.0966  18.3278  19.3779  19.5439

          k = 0.2744 0.4490 0.4051 (  8287 PWs)   bands (ev):

   -64.3048 -64.3040 -64.2979 -64.2961 -31.2677 -31.2655 -31.1998 -31.1988
   -31.0745 -31.0696 -31.0575 -31.0462 -31.0004 -30.9970 -30.9959 -30.9890
    -7.4133  -7.3014  -7.2808  -6.9998   4.0931   4.2464   5.3208   5.6446
     6.5579   7.0669   7.4064   7.6125   7.9194   8.0641   8.1803   8.3059
    15.6161  16.1686  17.5757  18.3845  18.8287  19.3010

          k = 0.1413-0.3825 0.0000 (  8314 PWs)   bands (ev):

   -64.3136 -64.3078 -64.2920 -64.2894 -31.3177 -31.3147 -31.1516 -31.1438
   -31.0822 -31.0536 -31.0453 -31.0371 -31.0269 -31.0047 -30.9934 -30.9834
    -8.1546  -7.2645  -7.0775  -6.6174   4.8870   5.1721   5.2160   5.3738
     5.8646   6.5910   6.8386   7.3756   7.4941   7.7910   9.2355   9.6577
    15.3711  16.8840  17.1939  18.1414  19.2663  19.4756

          k = 0.1413-0.3825 0.2025 (  8284 PWs)   bands (ev):

   -64.3130 -64.3083 -64.2917 -64.2896 -31.3178 -31.3154 -31.1508 -31.1446
   -31.0843 -31.0554 -31.0524 -31.0390 -31.0199 -31.0008 -30.9922 -30.9842
    -8.0514  -7.3257  -7.0130  -6.6381   4.1991   5.1773   5.1810   5.2568
     6.1342   6.2339   7.2786   7.3403   7.8198   7.8296   9.2761   9.5852
    15.5636  16.5790  17.3993  17.4883  19.7489  19.9323

          k = 0.1413-0.3825 0.4051 (  8291 PWs)   bands (ev):

   -64.3116 -64.3098 -64.2911 -64.2903 -31.3177 -31.3168 -31.1489 -31.1466
   -31.0831 -31.0724 -31.0488 -31.0436 -31.0072 -30.9996 -30.9894 -30.9864
    -7.7952  -7.5145  -6.8622  -6.7174   3.9268   4.3036   5.0348   5.0542
     6.3550   6.8215   7.1964   7.7195   7.8366   7.8942   9.3684   9.4628
    16.3615  16.3711  16.6347  17.6647  18.6520  19.4049

          k = 0.1746-0.1746 0.0000 (  8273 PWs)   bands (ev):

   -64.3174 -64.3090 -64.2882 -64.2882 -31.3353 -31.3353 -31.1335 -31.1221
   -31.0929 -31.0430 -31.0429 -31.0395 -31.0308 -30.9986 -30.9881 -30.9881
    -8.4875  -7.2394  -6.6993  -6.6991   4.6825   4.8167   4.8168   5.0935
     6.6017   7.2428   7.2428   7.3911   7.3912   7.8301   9.6861  10.2324
    13.9146  15.9895  18.4887  18.4887  18.4982  18.4982

          k = 0.1746-0.1746 0.2025 (  8269 PWs)   bands (ev):

   -64.3166 -64.3098 -64.2882 -64.2882 -31.3354 -31.3354 -31.1324 -31.1231
   -31.0913 -31.0490 -31.0433 -31.0433 -31.0250 -30.9979 -30.9884 -30.9883
    -8.3601  -7.3454  -6.6764  -6.6763   4.2914   4.8824   4.8825   5.8187
     5.8796   6.8359   6.8360   7.5465   7.5465   8.0163   9.7332  10.1747
    14.3522  16.3341  17.6352  17.6352  19.9578  20.2078

          k = 0.1746-0.1746 0.4051 (  8304 PWs)   bands (ev):

   -64.3145 -64.3119 -64.2882 -64.2882 -31.3354 -31.3354 -31.1295 -31.1260
   -31.0835 -31.0677 -31.0437 -31.0437 -31.0125 -31.0018 -30.9887 -30.9887
    -8.0314  -7.6407  -6.6390  -6.6389   4.2844   4.8756   4.9940   4.9940
     6.4787   6.4788   6.8090   7.4914   7.4915   7.6662   9.8612  10.0295
    15.5941  16.7382  17.3491  17.3491  19.0335  19.6868

          k = 0.4822 0.4822 0.0000 (  8311 PWs)   bands (ev):

   -64.3106 -64.3106 -64.2924 -64.2892 -31.3187 -31.3149 -31.1474 -31.1474
   -31.0635 -31.0635 -31.0557 -31.0354 -31.0202 -31.0202 -30.9915 -30.9793
    -7.6431  -7.6430  -7.1585  -6.5933   4.8673   4.8674   5.4096   5.6594
     6.1926   6.1926   6.3959   6.7877   7.5087   7.8378   9.4629   9.4630
    16.1769  17.1412  17.3851  17.3851  20.1107  20.2035

          k = 0.4822 0.4822 0.2025 (  8299 PWs)   bands (ev):

   -64.3106 -64.3105 -64.2921 -64.2895 -31.3191 -31.3161 -31.1473 -31.1473
   -31.0727 -31.0727 -31.0535 -31.0371 -31.0117 -31.0117 -30.9903 -30.9804
    -7.6107  -7.6106  -7.0846  -6.6241   4.2005   4.2005   5.0613   5.3729
     6.8533   6.8803   6.9592   6.9593   7.4368   7.9755   9.4438   9.4439
    15.7442  16.5759  17.3706  17.3706  19.7043  19.7044

          k = 0.4822 0.4822 0.4051 (  8268 PWs)   bands (ev):

   -64.3106 -64.3105 -64.2913 -64.2903 -31.3195 -31.3183 -31.1471 -31.1471
   -31.0838 -31.0838 -31.0480 -31.0418 -31.0018 -31.0018 -30.9872 -30.9834
    -7.5573  -7.5572  -6.9083  -6.7304   3.5706   3.5706   4.7805   4.9244
     7.0284   7.2514   7.5732   7.7839   7.7839   7.9924   9.3881   9.3883
    15.3625  15.7139  17.3227  17.3227  19.1015  19.1016

          k = 0.3492-0.3492 0.0000 (  8298 PWs)   bands (ev):

   -64.3146 -64.3114 -64.2884 -64.2884 -31.3364 -31.3364 -31.1295 -31.1251
   -31.0759 -31.0555 -31.0433 -31.0433 -31.0284 -31.0161 -30.9836 -30.9836
    -7.9961  -7.5034  -6.7379  -6.7378   4.6460   5.1091   5.1092   5.1831
     5.5130   6.6981   7.2021   7.2022   7.2264   7.2265   9.8305  10.0384
    16.2789  17.2826  17.2826  17.5500  19.7183  19.7183

          k = 0.3492-0.3492 0.2025 (  8317 PWs)   bands (ev):

   -64.3143 -64.3117 -64.2884 -64.2884 -31.3371 -31.3371 -31.1291 -31.1255
   -31.0828 -31.0672 -31.0431 -31.0431 -31.0191 -31.0082 -30.9836 -30.9836
    -7.9213  -7.5185  -6.7128  -6.7126   3.9374   4.4546   4.8975   4.8975
     6.4471   7.0850   7.0851   7.3873   7.5457   7.5457   9.8480  10.0162
    16.2576  16.5100  16.5100  17.7044  19.5475  19.8636

          k = 0.3492-0.3492 0.4051 (  8264 PWs)   bands (ev):

   -64.3134 -64.3125 -64.2884 -64.2884 -31.3382 -31.3382 -31.1280 -31.1266
   -31.0889 -31.0832 -31.0428 -31.0428 -31.0058 -31.0015 -30.9836 -30.9836
    -7.7492  -7.5927  -6.6716  -6.6715   3.4526   3.6536   4.6001   4.6002
     7.0842   7.0843   7.5135   7.8317   7.8318   7.9147   9.8962   9.9603
    15.7306  15.7306  16.5505  17.4890  18.6727  19.2282

     the Fermi energy is    11.2709 ev

!    total energy              =    -608.23557090 Ry
     estimated scf accuracy    <       0.00000005 Ry
     smearing contrib. (-TS)   =      -0.00000000 Ry
     internal energy E=F+TS    =    -608.23557090 Ry

     The total energy is F=E-TS. E is the sum of the following terms:
     one-electron contribution =    -289.18638801 Ry
     hartree contribution      =     162.73621078 Ry
     xc contribution           =     -97.99523375 Ry
     ewald contribution        =    -383.67842283 Ry
     DFT-D3 Dispersion         =      -0.11173709 Ry

     convergence has been achieved in   8 iterations

     Forces acting on atoms (cartesian axes, Ry/au):

     atom    1 type  1   force =     0.00000000    0.00000000    0.00000000
     atom    2 type  1   force =     0.00000000    0.00000000    0.00000000
     atom    3 type  1   force =     0.00000000    0.00000000    0.00000000
     atom    4 type  1   force =     0.00000000    0.00000000    0.00000000
     atom    5 type  2   force =     0.00000000    0.00000000    0.00000000
     atom    6 type  2   force =     0.00000000    0.00000000    0.00000000
     atom    7 type  2   force =     0.00000000    0.00000000    0.00000000
     atom    8 type  2   force =     0.00000000    0.00000000    0.00000000

     Total force =     0.000000     Total SCF correction =     0.000000

     BFGS Geometry Optimization

     bfgs converged in   1 scf cycles and   0 bfgs steps
     (criteria: energy <  1.0E-04 Ry, force <  1.0E-03 Ry/Bohr)

     End of BFGS Geometry Optimization

     Final energy   =    -608.2355708998 Ry
Begin final coordinates

ATOMIC_POSITIONS (angstrom)
Mg            0.0000000000        0.0000000000        0.0000000000
Mg           -0.3368800000        2.1055000000        2.1055000000
Mg            2.1055000000       -0.3368800000        2.1055000000
Mg            1.7686200000        1.7686200000        0.0000000000
O             1.7686200000        1.7686200000        2.1055000000
O             2.1055000000       -0.3368800000        0.0000000000
O            -0.3368800000        2.1055000000        0.0000000000
O             0.0000000000        0.0000000000        2.1055000000
End final coordinates


 
     init_run     :      1.00s CPU      1.06s WALL (       1 calls)
     electrons    :     20.00s CPU     20.86s WALL (       1 calls)
     forces       :      4.74s CPU      4.77s WALL (       1 calls)

     Called by init_run:
     wfcinit      :      0.70s CPU      0.74s WALL (       1 calls)
     potinit      :      0.10s CPU      0.11s WALL (       1 calls)
     hinit0       :      0.16s CPU      0.17s WALL (       1 calls)

     Called by electrons:
     c_bands      :     13.77s CPU     14.50s WALL (       8 calls)
     sum_band     :      2.25s CPU      2.34s WALL (       8 calls)
     v_of_rho     :      0.09s CPU      0.11s WALL (       9 calls)
     mix_rho      :      0.01s CPU      0.03s WALL (       8 calls)

     Called by c_bands:
     init_us_2    :      0.21s CPU      0.24s WALL (     486 calls)
     cegterg      :     13.22s CPU     13.88s WALL (     216 calls)

     Called by *egterg:
     cdiaghg      :      1.48s CPU      1.51s WALL (     811 calls)
     h_psi        :     11.14s CPU     11.76s WALL (     838 calls)
     g_psi        :      0.03s CPU      0.03s WALL (     595 calls)

     Called by h_psi:
     h_psi:calbec :      0.48s CPU      0.51s WALL (     838 calls)
     vloc_psi     :     10.23s CPU     10.81s WALL (     838 calls)
     add_vuspsi   :      0.36s CPU      0.36s WALL (     838 calls)

     General routines
     calbec       :      0.53s CPU      0.56s WALL (     946 calls)
     fft          :      0.10s CPU      0.11s WALL (     100 calls)
     ffts         :      0.00s CPU      0.00s WALL (       8 calls)
     fftw         :     11.59s CPU     12.20s WALL (   49848 calls)
 
     Parallel routines
     fft_scatt_xy :      1.38s CPU      1.44s WALL (   49956 calls)
     fft_scatt_yz :      6.76s CPU      7.15s WALL (   49956 calls)
 
     PWSCF        :     25.89s CPU     26.87s WALL

 
   This run was terminated on:  13:34:17   4Feb2024            

=------------------------------------------------------------------------------=
   JOB DONE.
=------------------------------------------------------------------------------=
