# total energy = -12344.6674684 eV

CRYSTAL
PRIMVEC
		4.44490009		0.00000000		0.00000000
		0.00000000		4.66479819		-0.37318492
		0.00000000		-0.51635071		6.45439942
PRIMECORD
   20 1
O		0.47515982		2.08902392		1.43615122		-0.00028404		 0.00016072		-0.00016081
O		3.96974027		2.05942400		4.64506506		 0.00028404		-0.00016072		 0.00016081
O		2.69760987		-0.27297598		4.83165707		-0.00028404		-0.00016072		 0.00016081
O		1.74729023		4.42142524		1.24955920		 0.00028404		 0.00016072		-0.00016081
O		0.83697513		0.61426297		3.55565827		-0.00011814		 0.00026152		-0.00079365
O		3.60792496		3.53418496		2.52555801		 0.00011814		-0.00026152		 0.00079365
O		3.05942518		1.20178497		2.71215002		-0.00011814		-0.00026152		 0.00079365
O		1.38547491		2.94666295		3.36906625		 0.00011814		 0.00026152		-0.00079365
O		3.60792496		3.72823018		0.09999514		-0.00010016		 0.00046414		-0.00007770
O		0.83697513		0.42021819		5.98122114		 0.00010016		-0.00046414		 0.00007770
O		1.38547491		2.75261817		5.79462912		-0.00010016		-0.00046414		 0.00007770
O		3.05942518		1.39583020		0.28658716		 0.00010016		 0.00046414		-0.00007770
Mg		2.30334723		2.58442626		1.39651916		 0.00005051		 0.00011074		 0.00011751
Mg		2.14155286		1.56402211		4.68469712		-0.00005051		-0.00011074		-0.00011751
Mg		0.08089718		3.89642209		4.49810510		 0.00005051		-0.00011074		-0.00011751
Mg		4.36400291		0.25202584		1.58311117		-0.00005051		 0.00011074		 0.00011751
Si		2.22245005		-0.25817580		3.22720015		-0.00000000		0.00000000		0.00000000
Si		0.00000000		2.07422419		3.04060814		-0.00000000		0.00000000		0.00000000
Si		2.22245005		0.00000000		0.00000000		0.00000000		0.00000000		0.00000000
Si		0.00000000		2.33239998		-0.18659202		0.00000000		0.00000000		0.00000000
