# total energy = -12333.8540661 eV

CRYSTAL
PRIMVEC
		4.44490009		0.00000000		0.00000000
		0.00000000		4.66479819		0.74636984
		0.00000000		1.03270586		6.45439942
PRIMECORD
   20 1
O		0.47515982		2.47628807		1.96849824		-0.00013943		-0.00038956		-0.00006316
O		3.96974027		3.22121599		5.23227014		 0.00013943		 0.00038956		 0.00006316
O		2.69760987		0.88881600		4.85908611		-0.00013943		 0.00038956		 0.00006316
O		1.74729023		4.80868894		2.34168227		 0.00013943		-0.00038956		-0.00006316
O		0.83697513		1.48498823		3.77273919		 0.00008123		 0.00045860		 0.00042146
O		3.60792496		4.21251716		3.42802919		-0.00008123		-0.00045860		-0.00042146
O		3.05942518		1.88011584		3.05484515		 0.00008123		-0.00045860		-0.00042146
O		1.38547491		3.81738821		4.14592322		-0.00008123		 0.00045860		 0.00042146
O		3.60792496		3.82442627		1.00246499		-0.00007881		-0.00020731		 0.00074933
O		0.83697513		1.87307823		6.19830295		 0.00007881		 0.00020731		-0.00074933
O		1.38547491		4.20547822		6.57148698		-0.00007881		 0.00020731		-0.00074933
O		3.05942518		1.49202584		0.62928095		 0.00007881		-0.00020731		 0.00074933
Mg		2.30334723		2.97168996		2.04776192		-0.00015298		 0.00005621		 0.00064957
Mg		2.14155286		2.72581409		5.15300601		 0.00015298		-0.00005621		-0.00064957
Mg		0.08089718		5.05821408		5.52619005		-0.00015298		-0.00005621		-0.00064957
Mg		4.36400291		0.63928998		1.67457788		 0.00015298		 0.00005621		 0.00064957
Si		2.22245005		0.51635204		3.22720015		-0.00000000		0.00000000		0.00000000
Si		0.00000000		2.84875203		3.60038419		-0.00000000		0.00000000		0.00000000
Si		2.22245005		0.00000000		0.00000000		0.00000000		0.00000000		0.00000000
Si		0.00000000		2.33239998		0.37318403		0.00000000		0.00000000		0.00000000
