# total energy = -20636.819298 eV

CRYSTAL
PRIMVEC
		10.80374998		0.00000000		0.00000000
		0.00000000		5.75000423		0.00000000
		0.00000000		0.00000000		4.86999557
PRIMECORD
   28 1
Si		3.59764874		0.00000000		4.37666934		 0.00017164		0.00000000		-0.00053446
Si		7.20610124		0.00000000		0.49333055		-0.00017164		0.00000000		 0.00053446
Si		8.99952373		2.87499995		4.37666934		 0.00017385		0.00000000		-0.00052995
Si		1.80422625		2.87499995		0.49333055		-0.00017385		0.00000000		 0.00052995
Mg		0.00000000		0.00000000		0.00000000		0.00000000		0.00000000		0.00000000
Mg		5.40187499		2.87499995		0.00000000		0.00000000		0.00000000		0.00000000
Mg		5.40187499		0.00000000		2.43499995		0.00000000		0.00000000		0.00000000
Mg		0.00000000		2.87499995		2.43499995		0.00000000		0.00000000		0.00000000
Mg		2.70093749		1.43750052		2.43499995		 0.00001061		 0.00000230		-0.00000611
Mg		8.10281248		4.31250047		2.43499995		-0.00001061		-0.00000230		 0.00000611
Mg		8.10281248		1.43750052		2.43499995		-0.00001061		 0.00000230		 0.00000611
Mg		2.70093749		4.31250047		2.43499995		 0.00001061		-0.00000230		-0.00000611
O		8.85259273		0.00000000		1.08113990		-0.00049210		0.00000000		-0.00011764
O		1.95115725		0.00000000		3.78885999		 0.00049210		0.00000000		 0.00011764
O		3.45071774		2.87499995		1.08113990		-0.00048987		0.00000000		-0.00012624
O		7.35303224		2.87499995		3.78885999		 0.00048987		0.00000000		 0.00012624
O		3.60953287		0.00000000		1.14591055		-0.00023999		-0.00000000		-0.00049889
O		7.19421711		0.00000000		3.72408935		 0.00023999		-0.00000000		 0.00049889
O		9.01140786		2.87499995		1.14591055		-0.00024235		-0.00000000		-0.00049521
O		1.79234212		2.87499995		3.72408935		 0.00024235		-0.00000000		 0.00049521
O		0.98098050		1.55422531		1.09721048		 0.00024857		-0.00053838		-0.00015441
O		9.82276948		4.19577459		3.77278941		-0.00024857		 0.00053838		 0.00015441
O		9.82276948		1.55422531		3.77278941		-0.00024857		-0.00053838		 0.00015441
O		0.98098050		4.19577459		1.09721048		 0.00024857		 0.00053838		-0.00015441
O		6.38285549		4.42922526		1.09721048		 0.00023845		-0.00053632		-0.00015588
O		4.42089449		1.32077464		3.77278941		-0.00023845		 0.00053632		 0.00015588
O		4.42089449		4.42922526		3.77278941		-0.00023845		-0.00053632		 0.00015588
O		6.38285549		1.32077464		1.09721048		 0.00023845		 0.00053632		-0.00015588
