# total energy = -20636.9362864 eV

CRYSTAL
PRIMVEC
		10.55249982		0.00000000		0.00000000
		0.00000000		5.75000439		0.00000000
		0.00000000		0.00000000		4.86999977
PRIMECORD
   28 1
Si		3.51398244		0.00000000		4.37666935		 0.00079221		0.00000000		-0.00003256
Si		7.03851738		0.00000000		0.49333148		-0.00079221		0.00000000		 0.00003256
Si		8.79023235		2.87500008		4.37666935		 0.00079068		-0.00000000		-0.00003450
Si		1.76226747		2.87500008		0.49333148		-0.00079068		-0.00000000		 0.00003450
Mg		0.00000000		0.00000000		0.00000000		0.00000000		0.00000000		0.00000000
Mg		5.27624991		2.87500008		0.00000000		0.00000000		0.00000000		0.00000000
Mg		5.27624991		0.00000000		2.43499989		0.00000000		0.00000000		0.00000000
Mg		0.00000000		2.87500008		2.43499989		0.00000000		0.00000000		0.00000000
Mg		2.63812495		1.43749951		2.43499989		-0.00000110		 0.00000046		 0.00000028
Mg		7.91437486		4.31249960		2.43499989		 0.00000110		-0.00000046		-0.00000028
Mg		7.91437486		1.43749951		2.43499989		 0.00000110		 0.00000046		-0.00000028
Mg		2.63812495		4.31249960		2.43499989		-0.00000110		-0.00000046		 0.00000028
O		8.64671835		0.00000000		1.08113949		-0.00053049		0.00000000		 0.00000902
O		1.90578147		0.00000000		3.78886029		 0.00053049		0.00000000		-0.00000902
O		3.37046844		2.87500008		1.08113949		-0.00053449		0.00000000		 0.00000643
O		7.18203138		2.87500008		3.78886029		 0.00053449		0.00000000		-0.00000643
O		3.52559019		0.00000000		1.14591073		-0.00066002		0.00000000		-0.00015433
O		7.02690963		0.00000000		3.72408904		 0.00066002		0.00000000		 0.00015433
O		8.80184115		2.87500008		1.14591073		-0.00066175		0.00000000		-0.00015336
O		1.75065972		2.87500008		3.72408904		 0.00066175		0.00000000		 0.00015336
O		0.95816698		1.55422494		1.09721094		 0.00006528		-0.00086133		 0.00021233
O		9.59433284		4.19577523		3.77278883		-0.00006528		 0.00086133		-0.00021233
O		9.59433284		1.55422494		3.77278883		-0.00006528		-0.00086133		-0.00021233
O		0.95816698		4.19577523		1.09721094		 0.00006528		 0.00086133		 0.00021233
O		6.23441689		4.42922502		1.09721094		 0.00006436		-0.00085945		 0.00021187
O		4.31808293		1.32077515		3.77278883		-0.00006436		 0.00085945		-0.00021187
O		4.31808293		4.42922502		3.77278883		-0.00006436		-0.00085945		-0.00021187
O		6.23441689		1.32077515		1.09721094		 0.00006436		 0.00085945		 0.00021187
