# total energy = -35731.7107916 eV	

CRYSTAL	
PRIMVEC	
		7.86029970		0.00000000		0.00000000	
		-3.93014985		6.80721605		0.00000000	
		0.00000000		0.00000000		8.61569808	
PRIMCOORD
   46 1	
Mg		1.13856520		3.09524297		3.32307454		-0.00068038		-0.00047840		-0.00045154	
Mg		0.68030894		6.24562357		3.32307454		 0.00075449		-0.00035002		-0.00045154	
Mg		-1.81887414		4.27357185		3.32307454		-0.00007412		 0.00082842		-0.00045154	
Mg		2.79158465		3.71197701		7.63092437		 0.00068038		 0.00047840		-0.00045154	
Mg		3.24984091		0.56159483		7.63092437		-0.00075449		 0.00035002		-0.00045154	
Mg		5.74902399		2.53364656		7.63092437		 0.00007412		-0.00082842		-0.00045154	
Mg		0.81196896		1.65960010		0.97098911		 0.00002835		 0.00038565		-0.00027623	
Mg		2.08690957		6.68060470		0.97098911		-0.00034815		-0.00016828		-0.00027623	
Mg		-2.89887853		5.27423359		0.97098911		 0.00031981		-0.00021738		-0.00027623	
Mg		3.11818089		5.14761988		5.27883894		-0.00002835		-0.00038565		-0.00027623	
Mg		1.84324028		0.12661371		5.27883894		 0.00034815		 0.00016828		-0.00027623	
Mg		6.82902838		1.53298560		5.27883894		-0.00031981		 0.00021738		-0.00027623	
Mg		0.00000000		4.53814560		0.88655613		0.00000000		0.00000000		 0.00017002	
Mg		3.93014985		2.26907280		5.19440596		0.00000000		-0.00000000		 0.00017002	
Si		3.93014985		2.26907280		1.49999278		-0.00000000		-0.00000000		-0.00006876	
Si		0.00000000		4.53814560		5.80784261		0.00000000		0.00000000		-0.00006876	
Si		0.00000000		0.00000000		3.46178760		0.00000000		0.00000000		-0.00037248	
Si		0.00000000		0.00000000		7.76963901		-0.00000000		-0.00000000		-0.00037248	
O		1.46515986		0.18651784		8.40892268		-0.00040072		 0.00005020		-0.00005632	
O		6.96619061		1.17560686		8.40892268		 0.00015689		-0.00037213		-0.00005632	
O		3.35909908		5.44509450		8.40892268		 0.00024383		 0.00032193		-0.00005632	
O		2.46498999		6.62070214		4.10107285		 0.00040072		-0.00005020		-0.00005632	
O		-3.03604076		5.63161312		4.10107285		-0.00015689		 0.00037213		-0.00005632	
O		0.57105077		1.36212470		4.10107285		-0.00024383		-0.00032193		-0.00005632	
O		3.35792003		0.67255318		4.17344499		 0.00017111		-0.00015746		 0.00043666	
O		5.59889148		2.57176666		4.17344499		 0.00005081		 0.00022691		 0.00043666	
O		2.83363804		3.56289857		4.17344499		-0.00022192		-0.00006945		 0.00043666	
O		0.57222982		6.13466601		8.48129482		-0.00017111		 0.00015746		 0.00043666	
O		-1.66874163		4.23545175		8.48129482		-0.00005081		-0.00022691		 0.00043666	
O		1.09651181		3.24432062		8.48129482		 0.00022192		 0.00006945		 0.00043666	
O		2.40878884		2.00608761		1.99884199		 0.00035936		 0.00005025		 0.00015941	
O		4.91858254		1.08302904		1.99884199		-0.00022320		 0.00028610		 0.00015941	
O		4.46307817		3.71810412		1.99884199		-0.00013616		-0.00033634		 0.00015941	
O		1.52136101		4.80113158		6.30669182		-0.00035936		-0.00005025		 0.00015941	
O		-0.98843269		5.72419094		6.30669182		 0.00022320		-0.00028610		 0.00015941	
O		-0.53292832		3.08911586		6.30669182		 0.00013616		 0.00033634		 0.00015941	
O		-0.37690137		2.97271268		2.06604519		 0.00026784		-0.00037205		 0.00045738	
O		1.54415588		4.99445644		2.06604519		 0.00018828		 0.00041798		 0.00045738	
O		-1.16725529		5.64726848		2.06604519		-0.00045612		-0.00004593		 0.00045738	
O		4.30705122		3.83450651		6.37389502		-0.00026784		 0.00037205		 0.00045738	
O		2.38599397		1.81276275		6.37389502		-0.00018828		-0.00041798		 0.00045738	
O		5.09740514		1.15994993		6.37389502		 0.00045612		 0.00004593		 0.00045738	
O		3.93014985		2.26907280		0.00000000		0.00000000		0.00000000		-0.00046293	
O		0.00000000		4.53814560		4.30784983		0.00000000		0.00000000		-0.00046293	
O		0.00000000		0.00000000		2.00142724		0.00000000		-0.00000000		-0.00007389	
O		0.00000000		0.00000000		6.30927707		0.00000000		0.00000000		-0.00007389	
