# total energy = -35725.3668098 eV	

CRYSTAL	
PRIMVEC	
		7.86029970		0.00000000		0.00000000	
		-3.93014985		6.80721605		0.00000000	
		0.00000000		0.00000000		10.53030203	
PRIMCOORD
   46 1	
Mg		1.13856520		3.09524297		4.06153712		-0.00021763		 0.00024516		-0.00036299	
Mg		0.68030894		6.24562357		4.06153712		-0.00010350		-0.00031106		-0.00036299	
Mg		-1.81887414		4.27357185		4.06153712		 0.00032113		 0.00006589		-0.00036299	
Mg		2.79158465		3.71197701		9.32668656		 0.00021763		-0.00024516		-0.00036299	
Mg		3.24984091		0.56159483		9.32668656		 0.00010350		 0.00031106		-0.00036299	
Mg		5.74902399		2.53364656		9.32668656		-0.00032113		-0.00006589		-0.00036299	
Mg		0.81196896		1.65960010		1.18676534		-0.00012606		 0.00032779		-0.00052054	
Mg		2.08690957		6.68060470		1.18676534		-0.00022084		-0.00027307		-0.00052054	
Mg		-2.89887853		5.27423359		1.18676534		 0.00034691		-0.00005473		-0.00052054	
Mg		3.11818089		5.14761988		6.45191478		 0.00012606		-0.00032779		-0.00052054	
Mg		1.84324028		0.12661371		6.45191478		 0.00022084		 0.00027307		-0.00052054	
Mg		6.82902838		1.53298560		6.45191478		-0.00034691		 0.00005473		-0.00052054	
Mg		0.00000000		4.53814560		1.08356825		0.00000000		0.00000000		 0.00043046	
Mg		3.93014985		2.26907280		6.34871769		0.00000000		0.00000000		 0.00043046	
Si		3.93014985		2.26907280		1.83332530		0.00000000		0.00000000		 0.00007051	
Si		0.00000000		4.53814560		7.09847474		-0.00000000		-0.00000000		 0.00007051	
Si		0.00000000		0.00000000		4.23107514		0.00000000		0.00000000		-0.00021956	
Si		0.00000000		0.00000000		9.49622458		-0.00000000		-0.00000000		-0.00021956	
O		1.46515986		0.18651784		10.27757295		-0.00000589		 0.00018188		-0.00032679	
O		6.96619061		1.17560686		10.27757295		-0.00015457		-0.00009604		-0.00032679	
O		3.35909908		5.44509450		10.27757295		 0.00016046		-0.00008584		-0.00032679	
O		2.46498999		6.62070214		5.01242273		 0.00000589		-0.00018188		-0.00032679	
O		-3.03604076		5.63161312		5.01242273		 0.00015457		 0.00009604		-0.00032679	
O		0.57105077		1.36212470		5.01242273		-0.00016046		 0.00008584		-0.00032679	
O		3.35792003		0.67255318		5.10087704		-0.00039725		 0.00068783		 0.00053106	
O		5.59889148		2.57176666		5.10087704		-0.00039706		-0.00068795		 0.00053106	
O		2.83363804		3.56289857		5.10087704		 0.00079431		 0.00000011		 0.00053106	
O		0.57222982		6.13466601		10.36602726		 0.00039725		-0.00068783		 0.00053106	
O		-1.66874163		4.23545175		10.36602726		 0.00039706		 0.00068795		 0.00053106	
O		1.09651181		3.24432062		10.36602726		-0.00079431		-0.00000011		 0.00053106	
O		2.40878884		2.00608761		2.44302988		 0.00016858		-0.00007303		 0.00039473	
O		4.91858254		1.08302904		2.44302988		-0.00002104		 0.00018251		 0.00039473	
O		4.46307817		3.71810412		2.44302988		-0.00014754		-0.00010948		 0.00039473	
O		1.52136101		4.80113158		7.70817854		-0.00016858		 0.00007303		 0.00039473	
O		-0.98843269		5.72419094		7.70817854		 0.00002104		-0.00018251		 0.00039473	
O		-0.53292832		3.08911586		7.70817854		 0.00014754		 0.00010948		 0.00039473	
O		-0.37690137		2.97271268		2.52516608		 0.00004082		-0.00015574		-0.00000314	
O		1.54415588		4.99445644		2.52516608		 0.00011447		 0.00011322		-0.00000314	
O		-1.16725529		5.64726848		2.52516608		-0.00015529		 0.00004253		-0.00000314	
O		4.30705122		3.83450651		7.79031552		-0.00004082		 0.00015574		-0.00000314	
O		2.38599397		1.81276275		7.79031552		-0.00011447		-0.00011322		-0.00000314	
O		5.09740514		1.15994993		7.79031552		 0.00015529		-0.00004253		-0.00000314	
O		3.93014985		2.26907280		0.00000000		0.00000000		0.00000000		 0.00024515	
O		0.00000000		4.53814560		5.26514944		0.00000000		0.00000000		 0.00024515	
O		0.00000000		0.00000000		2.44618894		0.00000000		0.00000000		 0.00033644	
O		0.00000000		0.00000000		7.71133759		-0.00000000		-0.00000000		 0.00033644	
