# total energy = -35726.7185491 eV	

CRYSTAL	
PRIMVEC	
		7.86029970		0.00000000		0.00000000	
		-3.93014985		6.80721605		0.00000000	
		0.00000000		0.00000000		9.81232653	
PRIMCOORD
   46 1	
Mg		1.13856520		3.09524297		3.78461404		 0.00022767		-0.00017649		 0.00014090	
Mg		0.68030894		6.24562357		3.78461404		 0.00003900		 0.00028541		 0.00014090	
Mg		-1.81887414		4.27357185		3.78461404		-0.00026668		-0.00010893		 0.00014090	
Mg		2.79158465		3.71197701		8.69077574		-0.00022767		 0.00017649		 0.00014090	
Mg		3.24984091		0.56159483		8.69077574		-0.00003900		-0.00028541		 0.00014090	
Mg		5.74902399		2.53364656		8.69077574		 0.00026668		 0.00010893		 0.00014090	
Mg		0.81196896		1.65960010		1.10584906		 0.00016416		 0.00001751		 0.00027601	
Mg		2.08690957		6.68060470		1.10584906		-0.00009725		 0.00013341		 0.00027601	
Mg		-2.89887853		5.27423359		1.10584906		-0.00006692		-0.00015092		 0.00027601	
Mg		3.11818089		5.14761988		6.01201075		-0.00016416		-0.00001751		 0.00027601	
Mg		1.84324028		0.12661371		6.01201075		 0.00009725		-0.00013341		 0.00027601	
Mg		6.82902838		1.53298560		6.01201075		 0.00006692		 0.00015092		 0.00027601	
Mg		0.00000000		4.53814560		1.00968772		0.00000000		-0.00000000		-0.00023580	
Mg		3.93014985		2.26907280		5.91585099		0.00000000		-0.00000000		-0.00023580	
Si		3.93014985		2.26907280		1.70832610		-0.00000000		-0.00000000		 0.00017796	
Si		0.00000000		4.53814560		6.61448779		-0.00000000		-0.00000000		 0.00017796	
Si		0.00000000		0.00000000		3.94259192		-0.00000000		-0.00000000		-0.00010362	
Si		0.00000000		0.00000000		8.84875440		0.00000000		0.00000000		-0.00010362	
O		1.46515986		0.18651784		9.57682881		-0.00019463		-0.00021932		-0.00036544	
O		6.96619061		1.17560686		9.57682881		 0.00028726		-0.00005890		-0.00036544	
O		3.35909908		5.44509450		9.57682881		-0.00009262		 0.00027822		-0.00036544	
O		2.46498999		6.62070214		4.67066711		 0.00019463		 0.00021932		-0.00036544	
O		-3.03604076		5.63161312		4.67066711		-0.00028726		 0.00005890		-0.00036544	
O		0.57105077		1.36212470		4.67066711		 0.00009262		-0.00027822		-0.00036544	
O		3.35792003		0.67255318		4.75308943		 0.00028632		-0.00013254		 0.00002301	
O		5.59889148		2.57176666		4.75308943		-0.00002837		 0.00031423		 0.00002301	
O		2.83363804		3.56289857		4.75308943		-0.00025795		-0.00018170		 0.00002301	
O		0.57222982		6.13466601		9.65925270		-0.00028632		 0.00013254		 0.00002301	
O		-1.66874163		4.23545175		9.65925270		 0.00002837		-0.00031423		 0.00002301	
O		1.09651181		3.24432062		9.65925270		 0.00025795		 0.00018170		 0.00002301	
O		2.40878884		2.00608761		2.27645913		 0.00006507		-0.00003893		 0.00003886	
O		4.91858254		1.08302904		2.27645913		 0.00000118		 0.00007583		 0.00003886	
O		4.46307817		3.71810412		2.27645913		-0.00006625		-0.00003689		 0.00003886	
O		1.52136101		4.80113158		7.18262160		-0.00006507		 0.00003893		 0.00003886	
O		-0.98843269		5.72419094		7.18262160		-0.00000118		-0.00007583		 0.00003886	
O		-0.53292832		3.08911586		7.18262160		 0.00006625		 0.00003689		 0.00003886	
O		-0.37690137		2.97271268		2.35299565		 0.00007061		-0.00010379		 0.00014169	
O		1.54415588		4.99445644		2.35299565		 0.00005458		 0.00011304		 0.00014169	
O		-1.16725529		5.64726848		2.35299565		-0.00012519		-0.00000925		 0.00014169	
O		4.30705122		3.83450651		7.25915734		-0.00007061		 0.00010379		 0.00014169	
O		2.38599397		1.81276275		7.25915734		-0.00005458		-0.00011304		 0.00014169	
O		5.09740514		1.15994993		7.25915734		 0.00012519		 0.00000925		 0.00014169	
O		3.93014985		2.26907280		0.00000000		0.00000000		0.00000000		 0.00003467	
O		0.00000000		4.53814560		4.90616169		0.00000000		0.00000000		 0.00003467	
O		0.00000000		0.00000000		2.27940281		0.00000000		0.00000000		-0.00063826	
O		0.00000000		0.00000000		7.18556450		0.00000000		-0.00000000		-0.00063826	
