# total energy = -10831.6701387 eV	

CRYSTAL	
PRIMVEC	
		2.88039987		0.00000000		0.00000000	
		-1.44019994		2.62578981		0.00000000	
		0.00000000		0.00000000		14.95999907	
PRIMCOORD
   13 1	
Mg		1.44019994		0.87526308		2.49333289		0.00000000		-0.00001571		 0.00020840	
Mg		0.00000000		1.75052587		12.46666531		0.00000000		 0.00001571		-0.00020840	
Mg		0.00000000		0.00000000		0.00000000		0.00000000		0.00000000		0.00000000	
Mg		0.00000000		1.75052587		4.98666664		0.00000000		 0.00081773		-0.00040692	
Mg		1.44019994		0.87526308		9.97333242		0.00000000		-0.00081773		 0.00040692	
O		1.44019994		0.87526308		13.71333348		0.00000000		-0.00015986		 0.00001157	
O		0.00000000		1.75052587		1.24666587		0.00000000		 0.00015986		-0.00001157	
O		1.44019994		0.87526308		6.08871973		0.00000000		-0.00034753		-0.00014123	
O		0.00000000		1.75052587		8.87127962		0.00000000		 0.00034753		 0.00014123	
O		0.00000000		0.00000000		11.22299160		0.00000000		 0.00033311		 0.00007222	
O		0.00000000		0.00000000		3.73700775		0.00000000		-0.00033311		-0.00007222	
H		1.44019994		0.87526308		7.07907178		0.00000000		 0.00045727		 0.00019373	
H		0.00000000		1.75052587		7.88092873		0.00000000		-0.00045727		-0.00019373	
