# total energy = -92490.9195638 eV	

CRYSTAL	
PRIMVEC	
		18.49999946		0.00000000		0.00000000	
		0.00000000		17.89998897		0.00000000	
		0.00000000		0.00000000		5.79699333	
PRIMCOORD
   164 1	
Mg		2.40499993		3.04299831		2.20285969		 0.00037392		 0.00008035		-0.00000277	
Mg		16.09499953		14.85699066		3.59413919		-0.00037392		-0.00008035		 0.00000277	
Mg		6.84499980		14.85699066		5.10136005		-0.00037392		-0.00008035		-0.00000277	
Mg		11.65499966		3.04299831		0.69564068		 0.00037392		 0.00008035		 0.00000277	
Mg		16.09499953		11.99299280		3.59413919		-0.00037392		 0.00008035		 0.00000277	
Mg		2.40499993		5.90699618		2.20285969		 0.00037392		-0.00008035		-0.00000277	
Mg		11.65499966		5.90699618		0.69564068		 0.00037392		-0.00008035		 0.00000277	
Mg		6.84499980		11.99299280		5.10136005		-0.00037392		 0.00008035		-0.00000277	
Mg		2.40499993		1.43199986		5.04339030		 0.00005986		 0.00021515		 0.00021624	
Mg		16.09499953		16.46799097		0.75361043		-0.00005986		-0.00021515		-0.00021624	
Mg		6.84499980		16.46799097		2.14488994		-0.00005986		-0.00021515		 0.00021624	
Mg		11.65499966		1.43199986		3.65211079		 0.00005986		 0.00021515		-0.00021624	
Mg		16.09499953		10.38199435		0.75361043		-0.00005986		 0.00021515		-0.00021624	
Mg		2.40499993		7.51799648		5.04339030		 0.00005986		-0.00021515		 0.00021624	
Mg		11.65499966		7.51799648		3.65211079		 0.00005986		-0.00021515		-0.00021624	
Mg		6.84499980		10.38199435		2.14488994		-0.00005986		 0.00021515		 0.00021624	
Mg		2.40499993		17.54198994		2.20285969		-0.00004076		 0.00023372		 0.00028369	
Mg		16.09499953		0.35800089		3.59413919		 0.00004076		-0.00023372		-0.00028369	
Mg		6.84499980		0.35800089		5.10136005		 0.00004076		-0.00023372		 0.00028369	
Mg		11.65499966		17.54198994		0.69564068		-0.00004076		 0.00023372		-0.00028369	
Mg		16.09499953		8.59199545		3.59413919		 0.00004076		 0.00023372		-0.00028369	
Mg		2.40499993		9.30799538		2.20285969		-0.00004076		-0.00023372		 0.00028369	
Mg		11.65499966		9.30799538		0.69564068		-0.00004076		-0.00023372		-0.00028369	
Mg		6.84499980		8.59199545		5.10136005		 0.00004076		 0.00023372		 0.00028369	
Mg		2.40499993		4.47499817		5.04339030		 0.00011123		0.00000000		 0.00037556	
Mg		16.09499953		13.42499266		0.75361043		-0.00011123		0.00000000		-0.00037556	
Mg		6.84499980		13.42499266		2.14488994		-0.00011123		0.00000000		 0.00037556	
Mg		11.65499966		4.47499817		3.65211079		 0.00011123		0.00000000		-0.00037556	
Si		0.55499998		14.67799207		1.68113010		-0.00008430		 0.00010088		 0.00000349	
Si		17.94500132		3.22199876		4.11587063		 0.00008430		-0.00010088		-0.00000349	
Si		8.69499974		3.22199876		4.57963047		 0.00008430		-0.00010088		 0.00000349	
Si		9.80499786		14.67799207		1.21737026		-0.00008430		 0.00010088		-0.00000349	
Si		17.94500132		5.72799758		4.11587063		 0.00008430		 0.00010088		-0.00000349	
Si		0.55499998		12.17199324		1.68113010		-0.00008430		-0.00010088		 0.00000349	
Si		9.80499786		12.17199324		1.21737026		-0.00008430		-0.00010088		-0.00000349	
Si		8.69499974		5.72799758		4.57963047		 0.00008430		 0.00010088		 0.00000349	
Si		0.55499998		16.46799097		4.57963047		-0.00045178		 0.00028735		 0.00001416	
Si		17.94500132		1.43199986		1.21737026		 0.00045178		-0.00028735		-0.00001416	
Si		8.69499974		1.43199986		1.68113010		 0.00045178		-0.00028735		 0.00001416	
Si		9.80499786		16.46799097		4.11587063		-0.00045178		 0.00028735		-0.00001416	
Si		17.94500132		7.51799648		1.21737026		 0.00045178		 0.00028735		-0.00001416	
Si		0.55499998		10.38199435		4.57963047		-0.00045178		-0.00028735		 0.00001416	
Si		9.80499786		10.38199435		4.11587063		-0.00045178		-0.00028735		-0.00001416	
Si		8.69499974		7.51799648		1.68113010		 0.00045178		 0.00028735		 0.00001416	
Si		4.06999988		16.46799097		0.23188084		 0.00006014		-0.00037032		 0.00006651	
Si		14.42999773		1.43199986		5.56511989		-0.00006014		 0.00037032		-0.00006651	
Si		5.17999985		1.43199986		3.13037936		-0.00006014		 0.00037032		 0.00006651	
Si		13.32000146		16.46799097		2.66661952		 0.00006014		-0.00037032		-0.00006651	
Si		14.42999773		7.51799648		5.56511989		-0.00006014		-0.00037032		-0.00006651	
Si		4.06999988		10.38199435		0.23188084		 0.00006014		 0.00037032		 0.00006651	
Si		13.32000146		10.38199435		2.66661952		 0.00006014		 0.00037032		-0.00006651	
Si		5.17999985		7.51799648		3.13037936		-0.00006014		-0.00037032		 0.00006651	
Si		4.06999988		14.67799207		3.13037936		-0.00006394		-0.00002445		-0.00014810	
Si		14.42999773		3.22199876		2.66661952		 0.00006394		 0.00002445		 0.00014810	
Si		5.17999985		3.22199876		0.23188084		 0.00006394		 0.00002445		-0.00014810	
Si		13.32000146		14.67799207		5.56511989		-0.00006394		-0.00002445		 0.00014810	
Si		14.42999773		5.72799758		2.66661952		 0.00006394		-0.00002445		 0.00014810	
Si		4.06999988		12.17199324		3.13037936		-0.00006394		 0.00002445		-0.00014810	
Si		13.32000146		12.17199324		5.56511989		-0.00006394		 0.00002445		 0.00014810	
Si		5.17999985		5.72799758		0.23188084		 0.00006394		-0.00002445		-0.00014810	
O		1.10999997		1.25299941		1.15940052		 0.00054857		-0.00006955		 0.00018630	
O		17.38999949		16.64699141		4.63760021		-0.00054857		 0.00006955		-0.00018630	
O		8.13999976		16.64699141		4.05789903		-0.00054857		 0.00006955		 0.00018630	
O		10.35999970		1.25299941		1.73909985		 0.00054857		-0.00006955		-0.00018630	
O		17.38999949		10.20299390		4.63760021		-0.00054857		-0.00006955		-0.00018630	
O		1.10999997		7.69699507		1.15940052		 0.00054857		 0.00006955		 0.00018630	
O		10.35999970		7.69699507		1.73909985		 0.00054857		 0.00006955		-0.00018630	
O		8.13999976		10.20299390		4.05789903		-0.00054857		-0.00006955		 0.00018630	
O		1.10999997		3.22199876		4.05789903		 0.00007955		 0.00029996		-0.00004405	
O		17.38999949		14.67799207		1.73909985		-0.00007955		-0.00029996		 0.00004405	
O		8.13999976		14.67799207		1.15940052		-0.00007955		-0.00029996		-0.00004405	
O		10.35999970		3.22199876		4.63760021		 0.00007955		 0.00029996		 0.00004405	
O		17.38999949		12.17199324		1.73909985		-0.00007955		 0.00029996		 0.00004405	
O		1.10999997		5.72799758		4.05789903		 0.00007955		-0.00029996		-0.00004405	
O		10.35999970		5.72799758		4.63760021		 0.00007955		-0.00029996		 0.00004405	
O		8.13999976		12.17199324		1.15940052		-0.00007955		 0.00029996		-0.00004405	
O		1.10999997		13.42499266		1.15940052		-0.00031071		0.00000000		-0.00017016	
O		17.38999949		4.47499817		4.63760021		 0.00031071		0.00000000		 0.00017016	
O		8.13999976		4.47499817		4.05789903		 0.00031071		0.00000000		-0.00017016	
O		10.35999970		13.42499266		1.73909985		-0.00031071		0.00000000		 0.00017016	
O		1.10999997		4.47499817		1.15940052		-0.00020727		0.00000000		-0.00061469	
O		17.38999949		13.42499266		4.63760021		 0.00020727		0.00000000		 0.00061469	
O		8.13999976		13.42499266		4.05789903		 0.00020727		0.00000000		-0.00061469	
O		10.35999970		4.47499817		1.73909985		-0.00020727		0.00000000		 0.00061469	
O		1.10999997		0.00000000		4.05789903		 0.00007438		 0.00029924		 0.00027923	
O		17.38999949		0.00000000		1.73909985		-0.00007438		-0.00029924		-0.00027923	
O		8.13999976		0.00000000		1.15940052		-0.00007438		-0.00029924		 0.00027923	
O		10.35999970		0.00000000		4.63760021		 0.00007438		 0.00029924		-0.00027923	
O		17.38999949		8.94999449		1.73909985		-0.00007438		 0.00029924		-0.00027923	
O		1.10999997		8.94999449		4.05789903		 0.00007438		-0.00029924		 0.00027923	
O		10.35999970		8.94999449		4.63760021		 0.00007438		-0.00029924		-0.00027923	
O		8.13999976		8.94999449		1.15940052		-0.00007438		 0.00029924		 0.00027923	
O		0.92499997		15.57299059		0.28985059		-0.00031601		-0.00013223		-0.00023417	
O		17.57499948		2.32699838		5.50715014		 0.00031601		 0.00013223		 0.00023417	
O		8.32499976		2.32699838		3.18834911		 0.00031601		 0.00013223		-0.00023417	
O		10.17499970		15.57299059		2.60864977		-0.00031601		-0.00013223		 0.00023417	
O		17.57499948		6.62299611		5.50715014		 0.00031601		-0.00013223		 0.00023417	
O		0.92499997		11.27699287		0.28985059		-0.00031601		 0.00013223		-0.00023417	
O		10.17499970		11.27699287		2.60864977		-0.00031601		 0.00013223		 0.00023417	
O		8.32499976		6.62299611		3.18834911		 0.00031601		-0.00013223		-0.00023417	
O		0.92499997		15.57299059		3.13037936		-0.00023370		 0.00000112		 0.00025826	
O		17.57499948		2.32699838		2.66661952		 0.00023370		-0.00000112		-0.00025826	
O		8.32499976		2.32699838		0.23188084		 0.00023370		-0.00000112		 0.00025826	
O		10.17499970		15.57299059		5.56511989		-0.00023370		 0.00000112		-0.00025826	
O		17.57499948		6.62299611		2.66661952		 0.00023370		 0.00000112		-0.00025826	
O		0.92499997		11.27699287		3.13037936		-0.00023370		-0.00000112		 0.00025826	
O		10.17499970		11.27699287		5.56511989		-0.00023370		-0.00000112		-0.00025826	
O		8.32499976		6.62299611		0.23188084		 0.00023370		 0.00000112		 0.00025826	
O		3.51499990		3.22199876		0.28985059		-0.00013449		 0.00011742		-0.00037184	
O		14.98499956		14.67799207		5.50715014		 0.00013449		-0.00011742		 0.00037184	
O		5.73499983		14.67799207		3.18834911		 0.00013449		-0.00011742		-0.00037184	
O		12.76499963		3.22199876		2.60864977		-0.00013449		 0.00011742		 0.00037184	
O		14.98499956		12.17199324		5.50715014		 0.00013449		 0.00011742		 0.00037184	
O		3.51499990		5.72799758		0.28985059		-0.00013449		-0.00011742		-0.00037184	
O		12.76499963		5.72799758		2.60864977		-0.00013449		-0.00011742		 0.00037184	
O		5.73499983		12.17199324		3.18834911		 0.00013449		 0.00011742		-0.00037184	
O		3.51499990		1.25299941		3.24632070		-0.00001645		-0.00019918		 0.00016289	
O		14.98499956		16.64699141		2.55068003		 0.00001645		 0.00019918		-0.00016289	
O		5.73499983		16.64699141		0.34782034		 0.00001645		 0.00019918		 0.00016289	
O		12.76499963		1.25299941		5.44918039		-0.00001645		-0.00019918		-0.00016289	
O		14.98499956		10.20299390		2.55068003		 0.00001645		-0.00019918		-0.00016289	
O		3.51499990		7.69699507		3.24632070		-0.00001645		 0.00019918		 0.00016289	
O		12.76499963		7.69699507		5.44918039		-0.00001645		 0.00019918		-0.00016289	
O		5.73499983		10.20299390		0.34782034		 0.00001645		-0.00019918		 0.00016289	
O		3.51499990		0.00000000		0.28985059		 0.00040439		-0.00023419		 0.00041821	
O		14.98499956		0.00000000		5.50715014		-0.00040439		 0.00023419		-0.00041821	
O		5.73499983		0.00000000		3.18834911		-0.00040439		 0.00023419		 0.00041821	
O		12.76499963		0.00000000		2.60864977		 0.00040439		-0.00023419		-0.00041821	
O		14.98499956		8.94999449		5.50715014		-0.00040439		-0.00023419		-0.00041821	
O		3.51499990		8.94999449		0.28985059		 0.00040439		 0.00023419		 0.00041821	
O		12.76499963		8.94999449		2.60864977		 0.00040439		 0.00023419		-0.00041821	
O		5.73499983		8.94999449		3.18834911		-0.00040439		-0.00023419		 0.00041821	
O		3.51499990		13.42499266		2.60864977		-0.00009290		0.00000000		-0.00035268	
O		14.98499956		4.47499817		3.18834911		 0.00009290		0.00000000		 0.00035268	
O		5.73499983		4.47499817		5.50715014		 0.00009290		0.00000000		-0.00035268	
O		12.76499963		13.42499266		0.28985059		-0.00009290		0.00000000		 0.00035268	
O		3.51499990		4.47499817		3.18834911		-0.00067636		-0.00000000		-0.00026900	
O		14.98499956		13.42499266		2.60864977		 0.00067636		0.00000000		 0.00026900	
O		5.73499983		13.42499266		0.28985059		 0.00067636		0.00000000		-0.00026900	
O		12.76499963		4.47499817		5.50715014		-0.00067636		0.00000000		 0.00026900	
O		3.69999989		15.57299059		1.73909985		-0.00047333		 0.00033927		 0.00048998	
O		14.79999957		2.32699838		4.05789903		 0.00047333		-0.00033927		-0.00048998	
O		5.54999984		2.32699838		4.63760021		 0.00047333		-0.00033927		 0.00048998	
O		12.94999962		15.57299059		1.15940052		-0.00047333		 0.00033927		-0.00048998	
O		14.79999957		6.62299611		4.05789903		 0.00047333		 0.00033927		-0.00048998	
O		3.69999989		11.27699287		1.73909985		-0.00047333		-0.00033927		 0.00048998	
O		12.94999962		11.27699287		1.15940052		-0.00047333		-0.00033927		-0.00048998	
O		5.54999984		6.62299611		4.63760021		 0.00047333		 0.00033927		 0.00048998	
O		3.69999989		15.57299059		4.63760021		-0.00043605		-0.00005600		-0.00019622	
O		14.79999957		2.32699838		1.15940052		 0.00043605		 0.00005600		 0.00019622	
O		5.54999984		2.32699838		1.73909985		 0.00043605		 0.00005600		-0.00019622	
O		12.94999962		15.57299059		4.05789903		-0.00043605		-0.00005600		 0.00019622	
O		14.79999957		6.62299611		1.15940052		 0.00043605		-0.00005600		 0.00019622	
O		3.69999989		11.27699287		4.63760021		-0.00043605		 0.00005600		-0.00019622	
O		12.94999962		11.27699287		4.05789903		-0.00043605		 0.00005600		 0.00019622	
O		5.54999984		6.62299611		1.73909985		 0.00043605		-0.00005600		-0.00019622	
H		17.94500132		0.00000000		0.86954992		-0.00047494		 0.00031130		-0.00022541	
H		0.55499813		0.00000000		4.92744896		 0.00047494		-0.00031130		 0.00022541	
H		9.80499786		0.00000000		3.76805029		 0.00047494		-0.00031130		-0.00022541	
H		8.69500159		0.00000000		2.02895044		-0.00047494		 0.00031130		 0.00022541	
H		0.55499813		8.94999449		4.92744896		 0.00047494		 0.00031130		 0.00022541	
H		17.94500132		8.94999449		0.86954992		-0.00047494		-0.00031130		-0.00022541	
H		8.69500159		8.94999449		2.02895044		-0.00047494		-0.00031130		 0.00022541	
H		9.80499786		8.94999449		3.76805029		 0.00047494		 0.00031130		-0.00022541	
