# total energy = -92494.3084239 eV	

CRYSTAL	
PRIMVEC	
		18.49999946		0.00000000		0.00000000	
		0.00000000		17.89998897		1.43199246	
		0.00000000		0.42159649		5.27000235	
PRIMCOORD
   164 1	
Mg		2.40499993		3.20320646		2.24604053		-0.00005275		-0.00028878		-0.00005717	
Mg		16.09499953		15.11838271		4.45595797		 0.00005275		 0.00028878		 0.00005717	
Mg		6.84499980		15.22799890		5.82615858		-0.00013663		-0.00039483		 0.00039885	
Mg		11.65499966		3.09359026		0.87583992		 0.00013663		 0.00039483		-0.00039885	
Mg		16.09499953		12.25438484		4.22683918		-0.00013663		 0.00039483		-0.00039885	
Mg		2.40499993		6.06720432		2.47515933		 0.00013663		-0.00039483		 0.00039885	
Mg		11.65499966		5.95758813		1.10496057		-0.00005275		 0.00028878		 0.00005717	
Mg		6.84499980		12.36400104		5.59703794		 0.00005275		-0.00028878		-0.00005717	
Mg		2.40499993		1.79879010		4.69946051		-0.00033874		-0.00014741		 0.00003978	
Mg		16.09499953		16.52279907		2.00253984		 0.00033874		 0.00014741		-0.00003978	
Mg		6.84499980		16.62398296		3.26733855		 0.00015363		-0.00017057		 0.00002983	
Mg		11.65499966		1.69760620		3.43465995		-0.00015363		 0.00017057		-0.00002983	
Mg		16.09499953		10.43680244		1.51565871		 0.00015363		 0.00017057		-0.00002983	
Mg		2.40499993		7.88478857		5.18633980		-0.00015363		-0.00017057		 0.00002983	
Mg		11.65499966		7.78360467		3.92153923		-0.00033874		 0.00014741		-0.00003978	
Mg		6.84499980		10.53798634		2.78045927		 0.00033874		-0.00014741		 0.00003978	
Mg		2.40499993		17.70219808		3.40595905		 0.00081246		-0.00005897		 0.00026906	
Mg		16.09499953		0.61939108		3.29603945		-0.00081246		 0.00005897		-0.00026906	
Mg		6.84499980		0.72900728		4.66624006		-0.00021465		-0.00000747		 0.00006890	
Mg		11.65499966		17.59258188		2.03575844		 0.00021465		 0.00000747		-0.00006890	
Mg		16.09499953		8.85338749		3.95475968		-0.00021465		 0.00000747		-0.00006890	
Mg		2.40499993		9.46820167		2.74724067		 0.00021465		-0.00000747		 0.00006890	
Mg		11.65499966		9.35858733		1.37704006		 0.00081246		 0.00005897		-0.00026906	
Mg		6.84499980		8.96300184		5.32496029		-0.00081246		-0.00005897		 0.00026906	
Mg		2.40499993		4.84179026		4.94290015		-0.00016391		-0.00001039		-0.00016266	
Mg		16.09499953		13.47980075		1.75909835		 0.00016391		 0.00001039		 0.00016266	
Mg		6.84499980		13.58098465		3.02389891		 0.00016391		-0.00001039		-0.00016266	
Mg		11.65499966		4.74060636		3.67809959		-0.00016391		 0.00001039		 0.00016266	
Si		0.55499998		14.80025487		2.70253912		 0.00012846		-0.00000970		-0.00006615	
Si		17.94500132		3.52133430		3.99945938		-0.00012846		 0.00000970		 0.00006615	
Si		8.69499974		3.55506165		4.42105957		 0.00034452		-0.00009895		-0.00001697	
Si		9.80499786		14.76652752		2.28093893		-0.00034452		 0.00009895		 0.00001697	
Si		17.94500132		6.02733312		4.19994018		 0.00034452		 0.00009895		 0.00001697	
Si		0.55499998		12.29425604		2.50205833		-0.00034452		-0.00009895		-0.00001697	
Si		9.80499786		12.26052869		2.08045999		 0.00012846		 0.00000970		 0.00006615	
Si		8.69499974		6.06106047		4.62154036		-0.00012846		-0.00000970		-0.00006615	
Si		0.55499998		16.80105386		5.48073954		 0.00011300		 0.00003639		-0.00014960	
Si		17.94500132		1.52053531		1.22126081		-0.00011300		-0.00003639		 0.00014960	
Si		8.69499974		1.55426265		1.64285915		-0.00004500		 0.00041687		-0.00014329	
Si		9.80499786		16.76732651		5.05913935		 0.00004500		-0.00041687		 0.00014329	
Si		17.94500132		7.60653193		1.70814010		-0.00004500		-0.00041687		 0.00014329	
Si		0.55499998		10.71505724		4.99386025		 0.00004500		 0.00041687		-0.00014329	
Si		9.80499786		10.68132989		4.57225822		 0.00011300		-0.00003639		 0.00014960	
Si		8.69499974		7.64025928		2.12974029		-0.00011300		 0.00003639		-0.00014960	
Si		4.06999988		16.48485372		1.52823871		 0.00078373		 0.00012113		-0.00023274	
Si		14.42999773		1.83673545		5.17375980		-0.00078373		-0.00012113		 0.00023274	
Si		5.17999985		1.65966270		2.96036066		 0.00005595		-0.00022058		 0.00060432	
Si		13.32000146		16.66192646		3.74163969		-0.00005595		 0.00022058		-0.00060432	
Si		14.42999773		7.92273207		5.66063908		 0.00005595		 0.00022058		-0.00060432	
Si		4.06999988		10.39885709		1.04135942		-0.00005595		-0.00022058		 0.00060432	
Si		13.32000146		10.57592984		3.25476040		 0.00078373		-0.00012113		 0.00023274	
Si		5.17999985		7.74565932		3.44723995		-0.00078373		 0.00012113		-0.00023274	
Si		4.06999988		14.90565491		4.02003878		-0.00015732		 0.00059518		-0.00001835	
Si		14.42999773		3.41593425		2.68195972		 0.00015732		-0.00059518		 0.00001835	
Si		5.17999985		3.23886150		0.46856059		 0.00001704		 0.00007810		 0.00038292	
Si		13.32000146		15.08272766		6.23343977		-0.00001704		-0.00007810		-0.00038292	
Si		14.42999773		5.92193308		2.88244052		 0.00001704		-0.00007810		-0.00038292	
Si		4.06999988		12.39965609		3.81955799		-0.00001704		 0.00007810		 0.00038292	
Si		13.32000146		12.57672883		6.03295897		-0.00015732		-0.00059518		 0.00001835	
Si		5.17999985		5.74486033		0.66903953		 0.00015732		 0.00059518		-0.00001835	
O		1.10999997		1.33731871		1.15424087		-0.00029259		 0.00042390		-0.00008139	
O		17.38999949		16.98427045		5.54775949		 0.00029259		-0.00042390		 0.00008139	
O		8.13999976		16.94211080		5.02075925		-0.00001143		 0.00020851		-0.00022740	
O		10.35999970		1.37947836		1.68123925		 0.00001143		-0.00020851		 0.00022740	
O		17.38999949		10.54027294		5.03224035		-0.00001143		-0.00020851		 0.00022740	
O		1.10999997		7.78131622		1.66976000		 0.00001143		 0.00020851		-0.00022740	
O		10.35999970		7.82347587		2.19676024		-0.00029259		-0.00042390		 0.00008139	
O		8.13999976		10.49811329		4.50523827		 0.00029259		 0.00042390		-0.00008139	
O		1.10999997		3.51711815		3.94676028		-0.00049114		-0.00007964		 0.00049250	
O		17.38999949		14.80447102		2.75523822		 0.00049114		 0.00007964		-0.00049250	
O		8.13999976		14.76231137		2.22823983		-0.00049046		-0.00030289		-0.00050134	
O		10.35999970		3.55927780		4.47376052		 0.00049046		 0.00030289		 0.00050134	
O		17.38999949		12.29847219		2.55475928		-0.00049046		 0.00030289		 0.00050134	
O		1.10999997		6.02311697		4.14723923		 0.00049046		-0.00030289		-0.00050134	
O		10.35999970		6.06527662		4.67423946		-0.00049114		 0.00007964		-0.00049250	
O		8.13999976		12.25631254		2.02775904		 0.00049114		-0.00007964		 0.00049250	
O		1.10999997		13.50931195		2.12799944		-0.00026316		 0.00016827		-0.00020084	
O		17.38999949		4.81227721		4.57399907		 0.00026316		-0.00016827		 0.00020084	
O		8.13999976		4.77011756		4.04700068		 0.00026316		 0.00016827		-0.00020084	
O		10.35999970		13.55147345		2.65499967		-0.00026316		-0.00016827		 0.00020084	
O		1.10999997		4.55931747		1.41199951		 0.00009102		-0.00034167		 0.00024418	
O		17.38999949		13.76227170		5.28999899		-0.00009102		 0.00034167		-0.00024418	
O		8.13999976		13.72011205		4.76299876		-0.00009102		-0.00034167		 0.00024418	
O		10.35999970		4.60147711		1.93899974		 0.00009102		 0.00034167		-0.00024418	
O		1.10999997		0.29511939		3.68899979		-0.00018402		-0.00011959		-0.00031928	
O		17.38999949		0.12648080		1.58100070		 0.00018402		 0.00011959		 0.00031928	
O		8.13999976		0.08431930		1.05400047		 0.00042695		 0.00015424		-0.00014837	
O		10.35999970		0.33728089		4.21600003		-0.00042695		-0.00015424		 0.00014837	
O		17.38999949		9.07647528		2.29700063		 0.00042695		-0.00015424		 0.00014837	
O		1.10999997		9.24511388		4.40499972		-0.00042695		 0.00015424		-0.00014837	
O		10.35999970		9.28727538		4.93199996		-0.00018402		 0.00011959		 0.00031928	
O		8.13999976		9.03431563		1.77000040		 0.00018402		-0.00011959		-0.00031928	
O		0.92499997		15.59407134		1.50933911		-0.00005797		-0.00045075		-0.00023545	
O		17.57499948		2.72751967		5.19265940		 0.00005797		 0.00045075		 0.00023545	
O		8.32499976		2.55887922		3.08466031		 0.00011532		 0.00002484		 0.00026761	
O		10.17499970		15.76270994		3.61733819		-0.00011532		-0.00002484		-0.00026761	
O		17.57499948		7.02351554		5.53633944		 0.00011532		-0.00002484		-0.00026761	
O		0.92499997		11.29807362		1.16565907		-0.00011532		 0.00002484		 0.00026761	
O		10.17499970		11.46671406		3.27365815		-0.00005797		 0.00045075		 0.00023545	
O		8.32499976		6.85487510		3.42834035		 0.00005797		-0.00045075		-0.00023545	
O		0.92499997		15.80065529		4.09163933		-0.00033723		 0.00000912		-0.00011259	
O		17.57499948		2.52093573		2.61035917		 0.00033723		-0.00000912		 0.00011259	
O		8.32499976		2.34386298		0.39696004		-0.00082983		 0.00003425		 0.00004593	
O		10.17499970		15.97772618		6.30503846		 0.00082983		-0.00003425		-0.00004593	
O		17.57499948		6.81693160		2.95403921		-0.00082983		-0.00003425		-0.00004593	
O		0.92499997		11.50465756		3.74795929		 0.00082983		 0.00003425		 0.00004593	
O		10.17499970		11.68173031		5.96136028		-0.00033723		-0.00000912		 0.00011259	
O		8.32499976		6.63986071		0.74064008		 0.00033723		 0.00000912		-0.00011259	
O		3.51499990		3.24307765		0.52125968		-0.00005591		-0.00004159		-0.00047027	
O		14.98499956		15.07851151		6.18073882		 0.00005591		 0.00004159		 0.00047027	
O		5.73499983		14.90987106		4.07273973		-0.00023280		-0.00052430		 0.00034100	
O		12.76499963		3.41171810		2.62926062		 0.00023280		 0.00052430		-0.00034100	
O		14.98499956		12.57251268		5.98025802		-0.00023280		 0.00052430		-0.00034100	
O		3.51499990		5.74907648		0.72174048		 0.00023280		-0.00052430		 0.00034100	
O		12.76499963		5.91771693		2.82973957		-0.00005591		 0.00004159		 0.00047027	
O		5.73499983		12.40387224		3.87226079		 0.00005591		-0.00004159		-0.00047027	
O		3.51499990		1.48909456		3.05143986		-0.00005316		-0.00010539		-0.00012826	
O		14.98499956		16.83249461		3.65055864		 0.00005316		 0.00010539		 0.00012826	
O		5.73499983		16.67228646		1.64795960		 0.00068230		 0.00067202		-0.00033086	
O		12.76499963		1.64930270		5.05404075		-0.00068230		-0.00067202		 0.00033086	
O		14.98499956		10.38849710		3.13503951		 0.00068230		-0.00067202		 0.00033086	
O		3.51499990		7.93309207		3.56695900		-0.00068230		 0.00067202		-0.00033086	
O		12.76499963		8.09330021		5.56955989		-0.00005316		 0.00010539		 0.00012826	
O		5.73499983		10.22828895		1.13244047		 0.00005316		-0.00010539		-0.00012826	
O		3.51499990		0.02108075		0.26349919		-0.00004270		-0.00038768		 0.00022268	
O		14.98499956		0.40051944		5.00649945		 0.00004270		 0.00038768		-0.00022268	
O		5.73499983		0.23188084		2.89850036		-0.00008357		-0.00023084		 0.00012980	
O		12.76499963		0.18971934		2.37150013		 0.00008357		 0.00023084		-0.00012980	
O		14.98499956		9.35051393		5.72249938		-0.00008357		 0.00023084		-0.00012980	
O		3.51499990		8.97107524		0.97949912		 0.00008357		-0.00023084		 0.00012980	
O		12.76499963		9.13971383		3.08750006		-0.00004270		 0.00038768		-0.00022268	
O		5.73499983		9.18187533		3.61450029		 0.00004270		-0.00038768		 0.00022268	
O		3.51499990		13.61471200		3.44549910		 0.00028561		 0.00045697		 0.00013374	
O		14.98499956		4.70687716		3.25649940		-0.00028561		-0.00045697		-0.00013374	
O		5.73499983		4.87551761		5.36450034		-0.00028561		 0.00045697		 0.00013374	
O		12.76499963		13.44607341		1.33749816		 0.00028561		-0.00045697		-0.00013374	
O		3.51499990		4.70687716		3.25649940		-0.00022286		-0.00045691		 0.00022151	
O		14.98499956		13.61471200		3.44549910		 0.00022286		 0.00045691		-0.00022151	
O		5.73499983		13.44607341		1.33749816		 0.00022286		-0.00045691		 0.00022151	
O		12.76499963		4.87551761		5.36450034		-0.00022286		 0.00045691		-0.00022151	
O		3.69999989		15.69947139		2.82683877		 0.00004341		 0.00020583		-0.00028247	
O		14.79999957		2.62211962		3.87515974		-0.00004341		-0.00020583		 0.00028247	
O		5.54999984		2.66427927		4.40215997		-0.00045754		 0.00041690		 0.00020236	
O		12.94999962		15.65730989		2.29983853		 0.00045754		-0.00041690		-0.00020236	
O		14.79999957		6.91811550		4.21883978		-0.00045754		-0.00041690		-0.00020236	
O		3.69999989		11.40347367		2.48316058		 0.00045754		 0.00041690		 0.00020236	
O		12.94999962		11.36131402		1.95615849		 0.00004341		-0.00020583		 0.00028247	
O		5.54999984		6.96027515		4.74584001		-0.00004341		 0.00020583		-0.00028247	
O		3.69999989		15.91026963		5.46183809		-0.00017216		-0.00003407		 0.00017377	
O		14.79999957		2.41131953		1.24016041		 0.00017216		 0.00003407		-0.00017377	
O		5.54999984		2.45347918		1.76716065		-0.00038284		-0.00016501		 0.00039526	
O		12.94999962		15.86810998		4.93483971		 0.00038284		 0.00016501		-0.00039526	
O		14.79999957		6.70731540		1.58384045		-0.00038284		 0.00016501		-0.00039526	
O		3.69999989		11.61427376		5.11815990		 0.00038284		-0.00016501		 0.00039526	
O		12.94999962		11.57211411		4.59115967		-0.00017216		 0.00003407		-0.00017377	
O		5.54999984		6.74947505		2.11084069		 0.00017216		-0.00003407		 0.00017377	
H		17.94500132		0.06324040		0.79049943		 0.00000929		-0.00053326		-0.00004059	
H		0.55499813		0.35835979		4.47949922		-0.00000929		 0.00053326		 0.00004059	
H		9.80499786		0.27404049		3.42550060		-0.00053813		-0.00041001		 0.00046342	
H		8.69500159		0.14755970		1.84449990		 0.00053813		 0.00041001		-0.00046342	
H		0.55499813		9.30835428		5.19549915		-0.00053813		 0.00041001		-0.00046342	
H		17.94500132		9.01323489		1.50649936		 0.00053813		-0.00041001		 0.00046342	
H		8.69500159		9.09755418		2.56049982		 0.00000929		 0.00053326		 0.00004059	
H		9.80499786		9.22403498		4.14149868		-0.00000929		-0.00053326		-0.00004059	
