# total energy = -9212.99043887 eV	

CRYSTAL	
PRIMVEC	
		5.32600074		0.63911880		0.00000000	
		-2.10950777		4.29289144		0.00000000	
		0.00000000		0.00000000		7.28799810	
PRIMCOORD
   18 1	
Mg		1.76716711		0.21206010		3.31603983		 0.00068084		 0.00015295		-0.00000830	
Mg		-0.69993392		1.42438121		3.31603983		 0.00025844		 0.00082933		-0.00014249	
Mg		2.14926193		3.29557001		3.31603983		 0.00001811		-0.00026956		-0.00030069	
Si		0.36899596		3.07496794		0.53931177		 0.00014696		-0.00011404		 0.00016691	
Si		2.84749808		1.85704391		0.53931177		-0.00011437		-0.00014306		 0.00015671	
H		3.10505794		0.37260715		5.33481575		 0.00018072		 0.00016451		 0.00048346	
H		-1.22984224		2.50275586		5.33481575		 0.00000795		-0.00017532		 0.00042729	
H		1.34127780		2.05664885		5.33481575		 0.00021032		 0.00028821		 0.00039204	
H		0.00000000		0.00000000		1.43573617		-0.00027494		-0.00089895		-0.00011723	
O		0.36899596		3.07496794		2.12153701		 0.00027197		-0.00033135		 0.00022005	
O		2.84749808		1.85704391		2.12153701		-0.00022172		 0.00012360		-0.00031270	
O		2.70028217		0.32403422		7.22969558		 0.00038297		-0.00020335		-0.00010348	
O		-1.06951995		2.17649603		7.22969558		 0.00010322		-0.00013102		 0.00043106	
O		1.58573182		2.43148214		7.22969558		-0.00000864		 0.00028212		 0.00023966	
O		3.53646381		0.42437606		4.28534400		-0.00051904		 0.00010037		-0.00090353	
O		-1.40071217		2.85048005		4.28534400		 0.00002589		 0.00011107		-0.00028478	
O		1.08074187		1.65715574		4.28534400		-0.00069494		 0.00014427		-0.00040283	
O		0.00000000		0.00000000		2.21555177		-0.00045376		 0.00007023		 0.00005887	
