# total energy = -10317.3003843 eV

CRYSTAL
PRIMVEC
		5.06147264		0.00000000		0.00000000
		0.00000000		8.96600168		0.00000000
		0.00000000		0.00000000		2.84607489
PRIMECORD
   14 1
Si		0.00000000		0.00000000		0.00000000		-0.00000028		-0.00000100		0.00000000
Si		2.53073632		4.48299984		0.00000000		-0.00000020		 0.00000098		-0.00000000
Mg		0.31033168		2.81980290		1.42303645		-0.00020243		-0.00002248		-0.00000000
Mg		4.75114146		6.14619728		1.42303645		 0.00020242		 0.00002267		-0.00000001
Mg		2.22040514		7.30280225		1.42303645		 0.00020157		-0.00002162		-0.00000000
Mg		2.84106800		1.66319744		1.42303645		-0.00020156		 0.00002150		0.00000000
O		1.12709797		0.46630229		1.42303645		 0.00007283		-0.00008368		 0.00000007
O		3.93437517		8.49969740		1.42303645		-0.00007292		 0.00008471		-0.00000006
O		1.40363835		4.94930163		1.42303645		-0.00007251		-0.00008517		0.00000000
O		3.65783429		4.01669806		1.42303645		 0.00007236		 0.00008405		-0.00000001
O		1.80860497		2.85993174		0.00000000		-0.00012195		-0.00008593		-0.00000001
O		3.25286767		6.10606795		0.00000000		 0.00012226		 0.00008526		0.00000000
O		0.72213135		7.34293109		0.00000000		 0.00012261		-0.00008752		-0.00000001
O		4.33934129		1.62306810		0.00000000		-0.00012219		 0.00008824		 0.00000004
