# total energy = -10317.348839 eV

CRYSTAL
PRIMVEC
		5.04093512		0.00000000		0.00000000
		0.00000000		8.89257158		0.00000000
		0.00000000		0.00000000		2.83459101
PRIMECORD
   14 1
Si		0.00000000		0.00000000		0.00000000		 0.00000023		 0.00000065		 0.00000003
Si		2.52046856		4.44628529		0.00000000		 0.00000008		-0.00000062		-0.00000003
Mg		0.32947928		2.81099079		1.41729501		-0.00122428		 0.00002904		-0.00000000
Mg		4.71145833		6.08157930		1.41729501		 0.00122433		-0.00002914		-0.00000001
Mg		2.19098978		7.25727559		1.41729501		 0.00122428		 0.00002924		-0.00000000
Mg		2.84994784		1.63529450		1.41729501		-0.00122421		-0.00002914		 0.00000001
O		1.13555650		0.44386589		1.41729451		-0.00013790		-0.00034442		 0.00000002
O		3.90538112		8.44870370		1.41729501		 0.00013793		 0.00034369		-0.00000002
O		1.38491206		4.89015118		1.41729501		 0.00013796		-0.00034373		-0.00000002
O		3.65602505		4.00241890		1.41729501		-0.00013795		 0.00034446		 0.00000001
O		1.82546974		2.82042341		0.00000000		 0.00009884		-0.00031858		 0.00000004
O		3.21546787		6.07214668		0.00000000		-0.00009896		 0.00031898		-0.00000003
O		0.69499932		7.26670820		0.00000000		-0.00009898		-0.00031912		-0.00000001
O		4.34593830		1.62586188		0.00000000		 0.00009867		 0.00031870		 0.00000003
