
     Program PWSCF v.6.6 starts on  4Feb2024 at 13:34:19 

     This program is part of the open-source Quantum ESPRESSO suite
     for quantum simulation of materials; please cite
         "P. Giannozzi et al., J. Phys.:Condens. Matter 21 395502 (2009);
         "P. Giannozzi et al., J. Phys.:Condens. Matter 29 465901 (2017);
          URL http://www.quantum-espresso.org", 
     in publications or presentations arising from this work. More details at
     http://www.quantum-espresso.org/quote

     Parallel version (MPI & OpenMP), running on      16 processor cores
     Number of MPI processes:                16
     Threads/MPI process:                     1

     MPI processes distributed on     2 nodes
     R & G space division:  proc/nbgrp/npool/nimage =      16
     Fft bands division:     nmany     =       1
     Waiting for input...
     Reading input from standard input

     Current dimensions of program PWSCF are:
     Max number of different atomic species (ntypx) = 10
     Max number of k-points (npk) =  40000
     Max angular momentum in pseudopotentials (lmaxx) =  3

     IMPORTANT: XC functional enforced from input :
     Exchange-correlation= PBE
                           (   1   4   3   4   0   0   0)
     Any further DFT definition will be discarded
     Please, verify this is what you really want


     --------------------------------------------
     Parameters for DFT-D3 Dispersion Correction:
     --------------------------------------------
       Reference C6 values for interpolation: 

         atom   Coordination number   C6
         O          0.000            31.01
         O          0.993            25.63
         O          1.989            20.74
         Mg         0.000          1366.75
         Mg         0.963           902.54
         Mg         1.950           351.12

       Values used:

         atom   Coordination number  R0_AB[au]  C6      C8
         Mg        16.582            3.292    351.12  31436.69
         Mg        16.582            3.292    351.12  31436.69
         Mg        16.582            3.292    351.12  31436.69
         Mg        16.582            3.292    351.12  31436.69
         O          5.817            2.345     20.74    418.58
         O          5.817            2.345     20.74    418.58
         O          5.817            2.345     20.74    418.58
         O          5.817            2.345     20.74    418.58

         Molecular C6 ( Ry / a.u.^6 ) =      8251.69


     Subspace diagonalization in iterative solution of the eigenvalue problem:
     a serial algorithm will be used

     Found symmetry operation: I + (  0.0000 -0.5000 -0.5000)
     This is a supercell, fractional translations are disabled
 
     Parallelization info
     --------------------
     sticks:   dense  smooth     PW     G-vecs:    dense   smooth      PW
     Min         126     126     35                 4252     4252     619
     Max         127     127     36                 4255     4255     623
     Sum        2025    2025    561                68051    68051    9939
 


     bravais-lattice index     =            0
     lattice parameter (alat)  =       7.9576  a.u.
     unit-cell volume          =     503.9092 (a.u.)^3
     number of atoms/cell      =            8
     number of atomic types    =            2
     number of electrons       =        64.00
     number of Kohn-Sham states=           38
     kinetic-energy cutoff     =     100.0000  Ry
     charge density cutoff     =     400.0000  Ry
     convergence threshold     =      1.0E-06
     mixing beta               =       0.5000
     number of iterations used =            8  plain     mixing
     Exchange-correlation= PBE
                           (   1   4   3   4   0   0   0)
     nstep                     =          100


     celldm(1)=   7.957637  celldm(2)=   0.000000  celldm(3)=   0.000000
     celldm(4)=   0.000000  celldm(5)=   0.000000  celldm(6)=   0.000000

     crystal axes: (cart. coord. in units of alat)
               a(1) = (   1.000000   0.000000   0.000000 )  
               a(2) = (   0.000000   1.000000   0.000000 )  
               a(3) = (   0.000000   0.000000   1.000000 )  

     reciprocal axes: (cart. coord. in units 2 pi/alat)
               b(1) = (  1.000000  0.000000  0.000000 )  
               b(2) = (  0.000000  1.000000  0.000000 )  
               b(3) = (  0.000000  0.000000  1.000000 )  


     PseudoPot. # 1 for Mg read from file:
     ./Mg.upf
     MD5 check sum: 4c04d8c6e0476e83eaecaf72fa8acc4d
     Pseudo is Norm-conserving, Zval = 10.0
     Generated using ONCVPSP code by D. R. Hamann
     Using radial grid of 1510 points,  4 beta functions with: 
                l(1) =   0
                l(2) =   0
                l(3) =   1
                l(4) =   1

     PseudoPot. # 2 for O  read from file:
     ./O.upf
     MD5 check sum: 3e3f909f7470e8921608ab6b1f57bbae
     Pseudo is Norm-conserving + core correction, Zval =  6.0
     Generated using ONCVPSP code by D. R. Hamann
     Using radial grid of  936 points,  5 beta functions with: 
                l(1) =   0
                l(2) =   0
                l(3) =   1
                l(4) =   1
                l(5) =   2

     atomic species   valence    mass     pseudopotential
        Mg            10.00    24.30500     Mg( 1.00)
        O              6.00    15.99900     O ( 1.00)

     No symmetry found



   Cartesian axes

     site n.     atom                  positions (alat units)
         1           Mg  tau(   1) = (   0.0000000   0.0000000   0.0000000  )
         2           Mg  tau(   2) = (   0.0000000   0.5000000   0.5000000  )
         3           Mg  tau(   3) = (   0.5000000   0.0000000   0.5000000  )
         4           Mg  tau(   4) = (   0.5000000   0.5000000   0.0000000  )
         5           O   tau(   5) = (   0.5000000   0.5000000   0.5000000  )
         6           O   tau(   6) = (   0.5000000   0.0000000   0.0000000  )
         7           O   tau(   7) = (   0.0000000   0.5000000   0.0000000  )
         8           O   tau(   8) = (   0.0000000   0.0000000   0.5000000  )

     number of k points=    63  Gaussian smearing, width (Ry)=  0.0050
                       cart. coord. in units 2pi/alat
        k(    1) = (   0.0000000   0.0000000   0.0000000), wk =   0.0160000
        k(    2) = (   0.0000000   0.0000000   0.2000000), wk =   0.0320000
        k(    3) = (   0.0000000   0.0000000   0.4000000), wk =   0.0320000
        k(    4) = (   0.0000000   0.2000000   0.0000000), wk =   0.0320000
        k(    5) = (   0.0000000   0.2000000   0.2000000), wk =   0.0320000
        k(    6) = (   0.0000000   0.2000000   0.4000000), wk =   0.0320000
        k(    7) = (   0.0000000   0.2000000  -0.4000000), wk =   0.0320000
        k(    8) = (   0.0000000   0.2000000  -0.2000000), wk =   0.0320000
        k(    9) = (   0.0000000   0.4000000   0.0000000), wk =   0.0320000
        k(   10) = (   0.0000000   0.4000000   0.2000000), wk =   0.0320000
        k(   11) = (   0.0000000   0.4000000   0.4000000), wk =   0.0320000
        k(   12) = (   0.0000000   0.4000000  -0.4000000), wk =   0.0320000
        k(   13) = (   0.0000000   0.4000000  -0.2000000), wk =   0.0320000
        k(   14) = (   0.2000000   0.0000000   0.0000000), wk =   0.0320000
        k(   15) = (   0.2000000   0.0000000   0.2000000), wk =   0.0320000
        k(   16) = (   0.2000000   0.0000000   0.4000000), wk =   0.0320000
        k(   17) = (   0.2000000   0.0000000  -0.4000000), wk =   0.0320000
        k(   18) = (   0.2000000   0.0000000  -0.2000000), wk =   0.0320000
        k(   19) = (   0.2000000   0.2000000   0.0000000), wk =   0.0320000
        k(   20) = (   0.2000000   0.2000000   0.2000000), wk =   0.0320000
        k(   21) = (   0.2000000   0.2000000   0.4000000), wk =   0.0320000
        k(   22) = (   0.2000000   0.2000000  -0.4000000), wk =   0.0320000
        k(   23) = (   0.2000000   0.2000000  -0.2000000), wk =   0.0320000
        k(   24) = (   0.2000000   0.4000000   0.0000000), wk =   0.0320000
        k(   25) = (   0.2000000   0.4000000   0.2000000), wk =   0.0320000
        k(   26) = (   0.2000000   0.4000000   0.4000000), wk =   0.0320000
        k(   27) = (   0.2000000   0.4000000  -0.4000000), wk =   0.0320000
        k(   28) = (   0.2000000   0.4000000  -0.2000000), wk =   0.0320000
        k(   29) = (   0.2000000  -0.4000000   0.0000000), wk =   0.0320000
        k(   30) = (   0.2000000  -0.4000000   0.2000000), wk =   0.0320000
        k(   31) = (   0.2000000  -0.4000000   0.4000000), wk =   0.0320000
        k(   32) = (   0.2000000  -0.4000000  -0.4000000), wk =   0.0320000
        k(   33) = (   0.2000000  -0.4000000  -0.2000000), wk =   0.0320000
        k(   34) = (   0.2000000  -0.2000000   0.0000000), wk =   0.0320000
        k(   35) = (   0.2000000  -0.2000000   0.2000000), wk =   0.0320000
        k(   36) = (   0.2000000  -0.2000000   0.4000000), wk =   0.0320000
        k(   37) = (   0.2000000  -0.2000000  -0.4000000), wk =   0.0320000
        k(   38) = (   0.2000000  -0.2000000  -0.2000000), wk =   0.0320000
        k(   39) = (   0.4000000   0.0000000   0.0000000), wk =   0.0320000
        k(   40) = (   0.4000000   0.0000000   0.2000000), wk =   0.0320000
        k(   41) = (   0.4000000   0.0000000   0.4000000), wk =   0.0320000
        k(   42) = (   0.4000000   0.0000000  -0.4000000), wk =   0.0320000
        k(   43) = (   0.4000000   0.0000000  -0.2000000), wk =   0.0320000
        k(   44) = (   0.4000000   0.2000000   0.0000000), wk =   0.0320000
        k(   45) = (   0.4000000   0.2000000   0.2000000), wk =   0.0320000
        k(   46) = (   0.4000000   0.2000000   0.4000000), wk =   0.0320000
        k(   47) = (   0.4000000   0.2000000  -0.4000000), wk =   0.0320000
        k(   48) = (   0.4000000   0.2000000  -0.2000000), wk =   0.0320000
        k(   49) = (   0.4000000   0.4000000   0.0000000), wk =   0.0320000
        k(   50) = (   0.4000000   0.4000000   0.2000000), wk =   0.0320000
        k(   51) = (   0.4000000   0.4000000   0.4000000), wk =   0.0320000
        k(   52) = (   0.4000000   0.4000000  -0.4000000), wk =   0.0320000
        k(   53) = (   0.4000000   0.4000000  -0.2000000), wk =   0.0320000
        k(   54) = (   0.4000000  -0.4000000   0.0000000), wk =   0.0320000
        k(   55) = (   0.4000000  -0.4000000   0.2000000), wk =   0.0320000
        k(   56) = (   0.4000000  -0.4000000   0.4000000), wk =   0.0320000
        k(   57) = (   0.4000000  -0.4000000  -0.4000000), wk =   0.0320000
        k(   58) = (   0.4000000  -0.4000000  -0.2000000), wk =   0.0320000
        k(   59) = (   0.4000000  -0.2000000   0.0000000), wk =   0.0320000
        k(   60) = (   0.4000000  -0.2000000   0.2000000), wk =   0.0320000
        k(   61) = (   0.4000000  -0.2000000   0.4000000), wk =   0.0320000
        k(   62) = (   0.4000000  -0.2000000  -0.4000000), wk =   0.0320000
        k(   63) = (   0.4000000  -0.2000000  -0.2000000), wk =   0.0320000

     Dense  grid:    68051 G-vectors     FFT dimensions: (  54,  54,  54)

     Estimated max dynamical RAM per process >      29.22 MB

     Estimated total dynamical RAM >     467.47 MB

     Initial potential from superposition of free atoms

     starting charge   63.99678, renormalised to   64.00000
     Starting wfcs are   36 randomized atomic wfcs +    2 random wfcs

     total cpu time spent up to now is        2.6 secs

     Self-consistent Calculation

     iteration #  1     ecut=   100.00 Ry     beta= 0.50
     Davidson diagonalization with overlap
     ethr =  1.00E-02,  avg # of iterations =  4.0

     total cpu time spent up to now is       12.6 secs

     total energy              =    -608.03223956 Ry
     estimated scf accuracy    <       1.57336964 Ry

     iteration #  2     ecut=   100.00 Ry     beta= 0.50
     Davidson diagonalization with overlap
     ethr =  2.46E-03,  avg # of iterations =  2.2

     total cpu time spent up to now is       17.1 secs

     total energy              =    -608.48016584 Ry
     estimated scf accuracy    <       0.24132896 Ry

     iteration #  3     ecut=   100.00 Ry     beta= 0.50
     Davidson diagonalization with overlap
     ethr =  3.77E-04,  avg # of iterations =  2.2

     total cpu time spent up to now is       22.2 secs

     total energy              =    -608.51529458 Ry
     estimated scf accuracy    <       0.01286812 Ry

     iteration #  4     ecut=   100.00 Ry     beta= 0.50
     Davidson diagonalization with overlap
     ethr =  2.01E-05,  avg # of iterations =  4.1

     total cpu time spent up to now is       28.4 secs

     total energy              =    -608.51591804 Ry
     estimated scf accuracy    <       0.00171225 Ry

     iteration #  5     ecut=   100.00 Ry     beta= 0.50
     Davidson diagonalization with overlap
     ethr =  2.68E-06,  avg # of iterations =  3.9

     total cpu time spent up to now is       34.3 secs

     total energy              =    -608.51631878 Ry
     estimated scf accuracy    <       0.00005206 Ry

     iteration #  6     ecut=   100.00 Ry     beta= 0.50
     Davidson diagonalization with overlap
     ethr =  8.13E-08,  avg # of iterations =  2.1

     total cpu time spent up to now is       39.0 secs

     total energy              =    -608.51633117 Ry
     estimated scf accuracy    <       0.00000150 Ry

     iteration #  7     ecut=   100.00 Ry     beta= 0.50
     Davidson diagonalization with overlap
     ethr =  2.35E-09,  avg # of iterations =  2.9

     total cpu time spent up to now is       44.1 secs

     total energy              =    -608.51633010 Ry
     estimated scf accuracy    <       0.00000321 Ry

     iteration #  8     ecut=   100.00 Ry     beta= 0.50
     Davidson diagonalization with overlap
     ethr =  2.35E-09,  avg # of iterations =  2.5

     total cpu time spent up to now is       49.5 secs

     End of self-consistent calculation

          k = 0.0000 0.0000 0.0000 (  8409 PWs)   bands (ev):

   -64.2904 -64.2789 -64.2789 -64.2789 -31.1156 -31.1156 -31.1156 -31.0716
   -31.0716 -31.0716 -31.0716 -31.0716 -31.0716 -31.0431 -31.0431 -31.0431
    -9.1286  -7.5854  -7.5854  -7.5853   4.0215   4.0215   4.0215   6.7284
     6.7284   6.7284   6.7284   6.7284   6.7285   8.0632   8.0632   8.0632
    12.8379  17.2907  17.2907  18.0836  18.0836  18.0836

          k = 0.0000 0.0000 0.2000 (  8501 PWs)   bands (ev):

   -64.2893 -64.2800 -64.2789 -64.2789 -31.1114 -31.1114 -31.1095 -31.0758
   -31.0758 -31.0723 -31.0723 -31.0689 -31.0689 -31.0508 -31.0458 -31.0458
    -8.9846  -7.7348  -7.5636  -7.5636   4.2128   4.2128   4.2479   6.3644
     6.3644   6.5784   6.5784   6.8368   6.8368   7.3531   7.9122   7.9122
    13.6615  17.6208  17.8675  17.8675  17.9372  18.6672

          k = 0.0000 0.0000 0.4000 (  8542 PWs)   bands (ev):

   -64.2864 -64.2829 -64.2789 -64.2789 -31.1003 -31.1003 -31.0927 -31.0868
   -31.0868 -31.0735 -31.0735 -31.0703 -31.0617 -31.0617 -31.0529 -31.0529
    -8.6035  -8.1253  -7.5280  -7.5280   4.7601   4.7601   4.9403   5.5608
     5.5608   6.0583   6.3469   6.3469   7.1366   7.1366   7.5447   7.5447
    15.3077  16.9480  18.6064  19.1278  19.1278  19.9457

          k = 0.0000 0.2000 0.0000 (  8501 PWs)   bands (ev):

   -64.2893 -64.2800 -64.2789 -64.2789 -31.1114 -31.1114 -31.1095 -31.0758
   -31.0758 -31.0723 -31.0723 -31.0689 -31.0689 -31.0508 -31.0458 -31.0458
    -8.9846  -7.7348  -7.5636  -7.5635   4.2128   4.2128   4.2479   6.3644
     6.3644   6.5783   6.5784   6.8368   6.8368   7.3531   7.9122   7.9122
    13.6615  17.6208  17.8675  17.8675  17.9372  18.6672

          k = 0.0000 0.2000 0.2000 (  8512 PWs)   bands (ev):

   -64.2883 -64.2799 -64.2799 -64.2790 -31.1080 -31.1080 -31.1073 -31.0847
   -31.0729 -31.0729 -31.0682 -31.0682 -31.0670 -31.0618 -31.0486 -31.0439
    -8.8483  -7.6962  -7.6962  -7.5568   4.3404   4.3404   4.4003   5.7445
     6.4888   6.4888   6.7057   6.7559   6.7559   6.8624   7.7349   7.9490
    14.2550  18.0103  18.1463  18.3983  18.3983  19.3507

          k = 0.0000 0.2000 0.4000 (  8538 PWs)   bands (ev):

   -64.2857 -64.2825 -64.2796 -64.2793 -31.1033 -31.0972 -31.0966 -31.0953
   -31.0835 -31.0800 -31.0663 -31.0654 -31.0651 -31.0584 -31.0561 -31.0487
    -8.4905  -8.0489  -7.6163  -7.5624   4.6046   4.8051   4.9353   5.0638
     5.6579   5.7140   6.6971   6.8173   6.8340   7.1835   7.3062   7.6583
    15.6414  17.2265  18.7471  18.9614  19.1571  19.2684

          k = 0.0000 0.2000-0.4000 (  8538 PWs)   bands (ev):

   -64.2857 -64.2825 -64.2796 -64.2793 -31.1033 -31.0972 -31.0966 -31.0953
   -31.0835 -31.0800 -31.0663 -31.0654 -31.0651 -31.0584 -31.0561 -31.0487
    -8.4905  -8.0489  -7.6163  -7.5624   4.6046   4.8051   4.9353   5.0638
     5.6579   5.7140   6.6971   6.8173   6.8340   7.1835   7.3062   7.6583
    15.6414  17.2265  18.7471  18.9615  19.1571  19.2684

          k = 0.0000 0.2000-0.2000 (  8512 PWs)   bands (ev):

   -64.2883 -64.2799 -64.2799 -64.2790 -31.1080 -31.1080 -31.1073 -31.0847
   -31.0729 -31.0729 -31.0682 -31.0682 -31.0670 -31.0618 -31.0486 -31.0439
    -8.8483  -7.6962  -7.6962  -7.5568   4.3404   4.3404   4.4003   5.7445
     6.4888   6.4888   6.7057   6.7559   6.7559   6.8624   7.7349   7.9490
    14.2550  18.0103  18.1463  18.3983  18.3983  19.3508

          k = 0.0000 0.4000 0.0000 (  8542 PWs)   bands (ev):

   -64.2864 -64.2829 -64.2789 -64.2789 -31.1003 -31.1003 -31.0927 -31.0868
   -31.0868 -31.0735 -31.0735 -31.0703 -31.0617 -31.0617 -31.0529 -31.0529
    -8.6035  -8.1253  -7.5281  -7.5280   4.7601   4.7601   4.9403   5.5608
     5.5608   6.0583   6.3468   6.3469   7.1366   7.1366   7.5447   7.5447
    15.3077  16.9480  18.6064  19.1278  19.1278  19.9457

          k = 0.0000 0.4000 0.2000 (  8538 PWs)   bands (ev):

   -64.2857 -64.2825 -64.2796 -64.2793 -31.1033 -31.0972 -31.0966 -31.0953
   -31.0835 -31.0800 -31.0663 -31.0654 -31.0651 -31.0584 -31.0561 -31.0487
    -8.4905  -8.0489  -7.6163  -7.5624   4.6046   4.8051   4.9353   5.0638
     5.6579   5.7140   6.6971   6.8173   6.8340   7.1835   7.3062   7.6583
    15.6414  17.2265  18.7471  19.1571  19.2684  20.2428

          k = 0.0000 0.4000 0.4000 (  8510 PWs)   bands (ev):

   -64.2838 -64.2815 -64.2815 -64.2803 -31.1033 -31.1033 -31.1031 -31.0945
   -31.0869 -31.0750 -31.0750 -31.0645 -31.0568 -31.0549 -31.0549 -31.0480
    -8.2019  -7.8654  -7.8654  -7.6776   4.5832   4.5832   4.6169   4.9879
     5.4318   6.1434   6.1434   6.7441   7.2117   7.2690   7.2690   7.6309
    16.5379  17.7945  17.7945  18.2789  19.6317  20.0774

          k = 0.0000 0.4000-0.4000 (  8510 PWs)   bands (ev):

   -64.2838 -64.2815 -64.2815 -64.2803 -31.1033 -31.1033 -31.1031 -31.0945
   -31.0869 -31.0750 -31.0750 -31.0645 -31.0568 -31.0549 -31.0549 -31.0480
    -8.2019  -7.8654  -7.8654  -7.6776   4.5832   4.5832   4.6169   4.9879
     5.4318   6.1434   6.1434   6.7441   7.2117   7.2690   7.2690   7.6309
    16.5379  17.7945  17.7945  18.2789  19.6317  20.0773

          k = 0.0000 0.4000-0.2000 (  8538 PWs)   bands (ev):

   -64.2857 -64.2825 -64.2796 -64.2793 -31.1033 -31.0972 -31.0966 -31.0953
   -31.0835 -31.0800 -31.0663 -31.0654 -31.0651 -31.0584 -31.0561 -31.0487
    -8.4905  -8.0489  -7.6163  -7.5624   4.6046   4.8051   4.9353   5.0638
     5.6579   5.7140   6.6971   6.8173   6.8340   7.1835   7.3062   7.6583
    15.6414  17.2265  18.7471  18.9615  19.1571  19.2684

          k = 0.2000 0.0000 0.0000 (  8501 PWs)   bands (ev):

   -64.2893 -64.2800 -64.2789 -64.2789 -31.1114 -31.1114 -31.1095 -31.0758
   -31.0758 -31.0723 -31.0723 -31.0689 -31.0689 -31.0508 -31.0458 -31.0458
    -8.9846  -7.7348  -7.5636  -7.5636   4.2128   4.2128   4.2479   6.3644
     6.3644   6.5784   6.5784   6.8368   6.8368   7.3531   7.9122   7.9122
    13.6615  17.6208  17.8675  17.8675  17.9372  18.6672

          k = 0.2000 0.0000 0.2000 (  8512 PWs)   bands (ev):

   -64.2883 -64.2799 -64.2799 -64.2790 -31.1080 -31.1080 -31.1073 -31.0847
   -31.0729 -31.0729 -31.0682 -31.0682 -31.0670 -31.0618 -31.0486 -31.0439
    -8.8483  -7.6962  -7.6961  -7.5568   4.3404   4.3404   4.4003   5.7445
     6.4888   6.4889   6.7057   6.7559   6.7559   6.8624   7.7349   7.9490
    14.2550  18.0103  18.1462  18.1463  18.3983  18.3983

          k = 0.2000 0.0000 0.4000 (  8538 PWs)   bands (ev):

   -64.2857 -64.2825 -64.2796 -64.2793 -31.1033 -31.0972 -31.0966 -31.0953
   -31.0835 -31.0800 -31.0663 -31.0654 -31.0651 -31.0584 -31.0561 -31.0487
    -8.4905  -8.0489  -7.6163  -7.5624   4.6046   4.8051   4.9353   5.0638
     5.6579   5.7140   6.6971   6.8173   6.8340   7.1835   7.3062   7.6583
    15.6414  17.2265  18.7471  19.1571  19.2684  20.2432

          k = 0.2000 0.0000-0.4000 (  8538 PWs)   bands (ev):

   -64.2857 -64.2825 -64.2796 -64.2793 -31.1033 -31.0972 -31.0966 -31.0953
   -31.0835 -31.0800 -31.0663 -31.0654 -31.0651 -31.0584 -31.0561 -31.0487
    -8.4905  -8.0489  -7.6163  -7.5624   4.6046   4.8051   4.9353   5.0638
     5.6579   5.7140   6.6971   6.8173   6.8340   7.1835   7.3062   7.6583
    15.6414  17.2265  18.7471  18.9614  19.1571  19.2684

          k = 0.2000 0.0000-0.2000 (  8512 PWs)   bands (ev):

   -64.2883 -64.2799 -64.2799 -64.2790 -31.1080 -31.1080 -31.1073 -31.0847
   -31.0729 -31.0729 -31.0682 -31.0682 -31.0670 -31.0618 -31.0486 -31.0439
    -8.8483  -7.6962  -7.6961  -7.5568   4.3404   4.3404   4.4003   5.7445
     6.4888   6.4889   6.7057   6.7559   6.7559   6.8624   7.7349   7.9490
    14.2550  18.0103  18.1462  18.1463  18.3983  18.3983

          k = 0.2000 0.2000 0.0000 (  8512 PWs)   bands (ev):

   -64.2883 -64.2799 -64.2799 -64.2790 -31.1080 -31.1080 -31.1073 -31.0847
   -31.0729 -31.0729 -31.0682 -31.0682 -31.0670 -31.0618 -31.0486 -31.0439
    -8.8483  -7.6962  -7.6961  -7.5568   4.3404   4.3404   4.4003   5.7445
     6.4888   6.4889   6.7057   6.7559   6.7559   6.8624   7.7349   7.9490
    14.2550  18.0103  18.1463  18.1463  18.3983  18.3983

          k = 0.2000 0.2000 0.2000 (  8517 PWs)   bands (ev):

   -64.2874 -64.2799 -64.2799 -64.2799 -31.1085 -31.1085 -31.1085 -31.0765
   -31.0764 -31.0764 -31.0728 -31.0648 -31.0648 -31.0648 -31.0461 -31.0461
    -8.7203  -7.6719  -7.6719  -7.6718   4.3531   4.3531   4.3531   6.1068
     6.1091   6.1092   6.1092   6.9532   6.9533   6.9533   7.8301   7.8301
    14.6515  17.9659  17.9659  17.9659  19.2158  19.2158

          k = 0.2000 0.2000 0.4000 (  8510 PWs)   bands (ev):

   -64.2851 -64.2822 -64.2799 -64.2799 -31.1096 -31.1096 -31.1041 -31.0906
   -31.0789 -31.0789 -31.0623 -31.0623 -31.0616 -31.0590 -31.0518 -31.0499
    -8.3874  -7.9848  -7.6322  -7.6321   4.3411   4.3411   4.5446   5.1844
     5.8452   5.8453   6.8372   6.9496   6.9497   7.2024   7.5215   7.5360
    15.7320  17.1039  18.2408  18.2408  19.4441  20.0339

          k = 0.2000 0.2000-0.4000 (  8510 PWs)   bands (ev):

   -64.2851 -64.2822 -64.2799 -64.2799 -31.1096 -31.1096 -31.1041 -31.0906
   -31.0789 -31.0789 -31.0623 -31.0623 -31.0616 -31.0590 -31.0518 -31.0499
    -8.3874  -7.9848  -7.6322  -7.6321   4.3411   4.3411   4.5446   5.1844
     5.8452   5.8453   6.8372   6.9496   6.9497   7.2024   7.5215   7.5360
    15.7320  17.1039  18.2408  18.2408  19.4441  20.0339

          k = 0.2000 0.2000-0.2000 (  8517 PWs)   bands (ev):

   -64.2874 -64.2799 -64.2799 -64.2799 -31.1085 -31.1085 -31.1085 -31.0765
   -31.0764 -31.0764 -31.0728 -31.0648 -31.0648 -31.0648 -31.0461 -31.0461
    -8.7203  -7.6719  -7.6719  -7.6718   4.3531   4.3531   4.3531   6.1068
     6.1091   6.1092   6.1092   6.9532   6.9533   6.9533   7.8301   7.8301
    14.6515  17.9659  17.9659  17.9659  19.2158  19.2158

          k = 0.2000 0.4000 0.0000 (  8538 PWs)   bands (ev):

   -64.2857 -64.2825 -64.2796 -64.2793 -31.1033 -31.0972 -31.0966 -31.0953
   -31.0835 -31.0800 -31.0663 -31.0654 -31.0651 -31.0584 -31.0561 -31.0487
    -8.4905  -8.0489  -7.6163  -7.5624   4.6046   4.8051   4.9353   5.0638
     5.6579   5.7140   6.6971   6.8173   6.8340   7.1835   7.3062   7.6583
    15.6414  17.2265  18.7471  19.1571  19.2684  20.2428

          k = 0.2000 0.4000 0.2000 (  8510 PWs)   bands (ev):

   -64.2851 -64.2822 -64.2799 -64.2799 -31.1096 -31.1096 -31.1041 -31.0906
   -31.0789 -31.0789 -31.0623 -31.0623 -31.0616 -31.0590 -31.0518 -31.0499
    -8.3874  -7.9848  -7.6322  -7.6321   4.3411   4.3411   4.5446   5.1844
     5.8452   5.8453   6.8372   6.9496   6.9497   7.2024   7.5215   7.5360
    15.7320  17.1039  18.2408  18.2408  19.4441  20.0339

          k = 0.2000 0.4000 0.4000 (  8499 PWs)   bands (ev):

   -64.2835 -64.2815 -64.2815 -64.2806 -31.1157 -31.1135 -31.1135 -31.1059
   -31.0720 -31.0655 -31.0655 -31.0567 -31.0560 -31.0548 -31.0548 -31.0488
    -8.1287  -7.8373  -7.8373  -7.7009   4.0448   4.1381   4.1381   4.4786
     6.1921   6.6032   6.6032   7.1653   7.2498   7.2895   7.2895   7.5890
    16.2058  17.1556  17.1556  17.5297  20.1205  20.3550

          k = 0.2000 0.4000-0.4000 (  8499 PWs)   bands (ev):

   -64.2835 -64.2815 -64.2815 -64.2806 -31.1157 -31.1135 -31.1135 -31.1059
   -31.0720 -31.0655 -31.0655 -31.0567 -31.0560 -31.0548 -31.0548 -31.0488
    -8.1287  -7.8373  -7.8373  -7.7009   4.0448   4.1381   4.1381   4.4786
     6.1921   6.6032   6.6032   7.1653   7.2498   7.2895   7.2895   7.5890
    16.2058  17.1556  17.1556  17.5297  20.1207  20.3554

          k = 0.2000 0.4000-0.2000 (  8510 PWs)   bands (ev):

   -64.2851 -64.2822 -64.2799 -64.2799 -31.1096 -31.1096 -31.1041 -31.0906
   -31.0789 -31.0789 -31.0623 -31.0623 -31.0616 -31.0590 -31.0518 -31.0499
    -8.3874  -7.9848  -7.6322  -7.6321   4.3411   4.3411   4.5446   5.1844
     5.8452   5.8453   6.8372   6.9496   6.9497   7.2024   7.5215   7.5360
    15.7320  17.1039  18.2408  18.2408  19.4441  20.0339

          k = 0.2000-0.4000 0.0000 (  8538 PWs)   bands (ev):

   -64.2857 -64.2825 -64.2796 -64.2793 -31.1033 -31.0972 -31.0966 -31.0953
   -31.0835 -31.0800 -31.0663 -31.0654 -31.0651 -31.0584 -31.0561 -31.0487
    -8.4905  -8.0489  -7.6163  -7.5624   4.6046   4.8051   4.9353   5.0638
     5.6579   5.7140   6.6971   6.8173   6.8340   7.1835   7.3062   7.6583
    15.6414  17.2265  18.7471  18.9615  19.1571  19.2684

          k = 0.2000-0.4000 0.2000 (  8510 PWs)   bands (ev):

   -64.2851 -64.2822 -64.2799 -64.2799 -31.1096 -31.1096 -31.1041 -31.0906
   -31.0789 -31.0789 -31.0623 -31.0623 -31.0616 -31.0590 -31.0518 -31.0499
    -8.3874  -7.9848  -7.6322  -7.6321   4.3411   4.3411   4.5446   5.1844
     5.8452   5.8453   6.8372   6.9496   6.9497   7.2024   7.5215   7.5360
    15.7320  17.1039  18.2408  18.2408  19.4441  20.0339

          k = 0.2000-0.4000 0.4000 (  8499 PWs)   bands (ev):

   -64.2835 -64.2815 -64.2815 -64.2806 -31.1157 -31.1135 -31.1135 -31.1059
   -31.0720 -31.0655 -31.0655 -31.0567 -31.0560 -31.0548 -31.0548 -31.0488
    -8.1287  -7.8373  -7.8373  -7.7009   4.0448   4.1381   4.1381   4.4786
     6.1921   6.6032   6.6032   7.1653   7.2498   7.2895   7.2895   7.5890
    16.2058  17.1556  17.1556  17.5297  20.1206  20.3550

          k = 0.2000-0.4000-0.4000 (  8499 PWs)   bands (ev):

   -64.2835 -64.2815 -64.2815 -64.2806 -31.1157 -31.1135 -31.1135 -31.1059
   -31.0720 -31.0655 -31.0655 -31.0567 -31.0560 -31.0548 -31.0548 -31.0488
    -8.1287  -7.8373  -7.8373  -7.7009   4.0448   4.1381   4.1381   4.4786
     6.1921   6.6032   6.6032   7.1653   7.2498   7.2895   7.2895   7.5890
    16.2058  17.1556  17.1556  17.5297  20.1206  20.3552

          k = 0.2000-0.4000-0.2000 (  8510 PWs)   bands (ev):

   -64.2851 -64.2822 -64.2799 -64.2799 -31.1096 -31.1096 -31.1041 -31.0906
   -31.0789 -31.0789 -31.0623 -31.0623 -31.0616 -31.0590 -31.0518 -31.0499
    -8.3874  -7.9848  -7.6322  -7.6321   4.3411   4.3411   4.5446   5.1844
     5.8452   5.8453   6.8372   6.9496   6.9497   7.2024   7.5215   7.5360
    15.7320  17.1039  18.2408  18.2408  19.4441  20.0339

          k = 0.2000-0.2000 0.0000 (  8512 PWs)   bands (ev):

   -64.2883 -64.2799 -64.2799 -64.2790 -31.1080 -31.1080 -31.1073 -31.0847
   -31.0729 -31.0729 -31.0682 -31.0682 -31.0670 -31.0618 -31.0486 -31.0439
    -8.8483  -7.6962  -7.6961  -7.5568   4.3404   4.3404   4.4003   5.7445
     6.4888   6.4889   6.7057   6.7559   6.7559   6.8624   7.7349   7.9490
    14.2550  18.0103  18.1463  18.1463  18.3983  18.3983

          k = 0.2000-0.2000 0.2000 (  8517 PWs)   bands (ev):

   -64.2874 -64.2799 -64.2799 -64.2799 -31.1085 -31.1085 -31.1085 -31.0765
   -31.0764 -31.0764 -31.0728 -31.0648 -31.0648 -31.0648 -31.0461 -31.0461
    -8.7203  -7.6719  -7.6719  -7.6718   4.3531   4.3531   4.3531   6.1068
     6.1091   6.1092   6.1092   6.9532   6.9533   6.9533   7.8301   7.8301
    14.6515  17.9659  17.9659  17.9659  19.2158  19.2158

          k = 0.2000-0.2000 0.4000 (  8510 PWs)   bands (ev):

   -64.2851 -64.2822 -64.2799 -64.2799 -31.1096 -31.1096 -31.1041 -31.0906
   -31.0789 -31.0789 -31.0623 -31.0623 -31.0616 -31.0590 -31.0518 -31.0499
    -8.3874  -7.9848  -7.6322  -7.6321   4.3411   4.3411   4.5446   5.1844
     5.8452   5.8453   6.8372   6.9496   6.9497   7.2025   7.5215   7.5360
    15.7320  17.1039  18.2408  18.2408  19.4441  20.0339

          k = 0.2000-0.2000-0.4000 (  8510 PWs)   bands (ev):

   -64.2851 -64.2822 -64.2799 -64.2799 -31.1096 -31.1096 -31.1041 -31.0906
   -31.0789 -31.0789 -31.0623 -31.0623 -31.0616 -31.0590 -31.0518 -31.0499
    -8.3874  -7.9848  -7.6322  -7.6321   4.3411   4.3411   4.5446   5.1844
     5.8452   5.8453   6.8372   6.9496   6.9497   7.2025   7.5215   7.5360
    15.7320  17.1039  18.2408  18.2408  19.4441  20.0339

          k = 0.2000-0.2000-0.2000 (  8517 PWs)   bands (ev):

   -64.2874 -64.2799 -64.2799 -64.2799 -31.1085 -31.1085 -31.1085 -31.0765
   -31.0764 -31.0764 -31.0728 -31.0648 -31.0648 -31.0648 -31.0461 -31.0461
    -8.7203  -7.6719  -7.6719  -7.6718   4.3531   4.3531   4.3531   6.1068
     6.1091   6.1092   6.1092   6.9532   6.9533   6.9533   7.8301   7.8301
    14.6515  17.9659  17.9659  17.9659  19.2158  19.2158

          k = 0.4000 0.0000 0.0000 (  8542 PWs)   bands (ev):

   -64.2864 -64.2829 -64.2789 -64.2789 -31.1003 -31.1003 -31.0927 -31.0868
   -31.0868 -31.0735 -31.0735 -31.0703 -31.0617 -31.0617 -31.0529 -31.0529
    -8.6035  -8.1253  -7.5280  -7.5280   4.7601   4.7601   4.9403   5.5608
     5.5608   6.0583   6.3469   6.3469   7.1366   7.1366   7.5447   7.5447
    15.3077  16.9480  18.6064  19.1278  19.9456  19.9457

          k = 0.4000 0.0000 0.2000 (  8538 PWs)   bands (ev):

   -64.2857 -64.2825 -64.2796 -64.2793 -31.1033 -31.0972 -31.0966 -31.0953
   -31.0835 -31.0800 -31.0663 -31.0654 -31.0651 -31.0584 -31.0561 -31.0487
    -8.4905  -8.0489  -7.6163  -7.5624   4.6046   4.8051   4.9353   5.0638
     5.6579   5.7140   6.6971   6.8173   6.8340   7.1835   7.3062   7.6583
    15.6414  17.2265  18.7471  18.9614  19.1571  19.2684

          k = 0.4000 0.0000 0.4000 (  8510 PWs)   bands (ev):

   -64.2838 -64.2815 -64.2815 -64.2803 -31.1033 -31.1032 -31.1031 -31.0945
   -31.0869 -31.0750 -31.0750 -31.0645 -31.0568 -31.0549 -31.0549 -31.0480
    -8.2019  -7.8655  -7.8653  -7.6776   4.5832   4.5833   4.6169   4.9879
     5.4318   6.1433   6.1434   6.7441   7.2117   7.2689   7.2690   7.6309
    16.5379  17.7945  17.7945  18.2789  19.6316  19.6318

          k = 0.4000 0.0000-0.4000 (  8510 PWs)   bands (ev):

   -64.2838 -64.2815 -64.2815 -64.2803 -31.1033 -31.1032 -31.1031 -31.0945
   -31.0869 -31.0750 -31.0750 -31.0645 -31.0568 -31.0549 -31.0549 -31.0480
    -8.2019  -7.8655  -7.8653  -7.6776   4.5832   4.5833   4.6169   4.9879
     5.4318   6.1433   6.1434   6.7441   7.2117   7.2689   7.2690   7.6309
    16.5379  17.7945  17.7945  18.2789  19.6318  20.0768

          k = 0.4000 0.0000-0.2000 (  8538 PWs)   bands (ev):

   -64.2857 -64.2825 -64.2796 -64.2793 -31.1033 -31.0972 -31.0966 -31.0953
   -31.0835 -31.0800 -31.0663 -31.0654 -31.0651 -31.0584 -31.0561 -31.0487
    -8.4905  -8.0489  -7.6163  -7.5624   4.6046   4.8051   4.9353   5.0638
     5.6579   5.7140   6.6971   6.8173   6.8340   7.1835   7.3062   7.6583
    15.6414  17.2265  18.7471  18.9615  19.1571  19.2684

          k = 0.4000 0.2000 0.0000 (  8538 PWs)   bands (ev):

   -64.2857 -64.2825 -64.2796 -64.2793 -31.1033 -31.0972 -31.0966 -31.0953
   -31.0835 -31.0800 -31.0663 -31.0654 -31.0651 -31.0584 -31.0561 -31.0487
    -8.4905  -8.0489  -7.6163  -7.5624   4.6046   4.8051   4.9353   5.0638
     5.6579   5.7140   6.6971   6.8173   6.8340   7.1835   7.3062   7.6583
    15.6414  17.2265  18.7471  19.1572  19.2683  20.2428

          k = 0.4000 0.2000 0.2000 (  8510 PWs)   bands (ev):

   -64.2851 -64.2822 -64.2799 -64.2799 -31.1096 -31.1096 -31.1041 -31.0906
   -31.0789 -31.0789 -31.0623 -31.0623 -31.0616 -31.0590 -31.0518 -31.0499
    -8.3874  -7.9848  -7.6321  -7.6321   4.3411   4.3411   4.5446   5.1844
     5.8453   5.8453   6.8372   6.9496   6.9496   7.2024   7.5215   7.5360
    15.7320  17.1039  18.2408  18.2408  19.4441  20.0339

          k = 0.4000 0.2000 0.4000 (  8499 PWs)   bands (ev):

   -64.2835 -64.2815 -64.2815 -64.2806 -31.1157 -31.1135 -31.1135 -31.1059
   -31.0720 -31.0655 -31.0654 -31.0567 -31.0560 -31.0548 -31.0548 -31.0488
    -8.1287  -7.8374  -7.8373  -7.7009   4.0448   4.1381   4.1381   4.4786
     6.1921   6.6031   6.6032   7.1653   7.2498   7.2895   7.2896   7.5890
    16.2058  17.1556  17.1556  17.5297  20.1206  20.3539

          k = 0.4000 0.2000-0.4000 (  8499 PWs)   bands (ev):

   -64.2835 -64.2815 -64.2815 -64.2806 -31.1157 -31.1135 -31.1135 -31.1059
   -31.0720 -31.0655 -31.0654 -31.0567 -31.0560 -31.0548 -31.0548 -31.0488
    -8.1287  -7.8374  -7.8373  -7.7009   4.0448   4.1381   4.1381   4.4786
     6.1921   6.6031   6.6032   7.1653   7.2498   7.2895   7.2896   7.5890
    16.2058  17.1556  17.1556  17.5297  20.1206  20.3554

          k = 0.4000 0.2000-0.2000 (  8510 PWs)   bands (ev):

   -64.2851 -64.2822 -64.2799 -64.2799 -31.1096 -31.1096 -31.1041 -31.0906
   -31.0789 -31.0789 -31.0623 -31.0623 -31.0616 -31.0590 -31.0518 -31.0499
    -8.3874  -7.9848  -7.6321  -7.6321   4.3411   4.3411   4.5446   5.1844
     5.8453   5.8453   6.8372   6.9496   6.9496   7.2024   7.5215   7.5360
    15.7320  17.1039  18.2408  18.2408  19.4441  20.0339

          k = 0.4000 0.4000 0.0000 (  8510 PWs)   bands (ev):

   -64.2838 -64.2815 -64.2815 -64.2803 -31.1033 -31.1032 -31.1031 -31.0945
   -31.0869 -31.0750 -31.0750 -31.0645 -31.0568 -31.0549 -31.0549 -31.0480
    -8.2019  -7.8654  -7.8654  -7.6776   4.5832   4.5833   4.6169   4.9879
     5.4318   6.1434   6.1434   6.7441   7.2117   7.2690   7.2690   7.6309
    16.5379  17.7945  17.7945  18.2789  19.6317  20.0773

          k = 0.4000 0.4000 0.2000 (  8499 PWs)   bands (ev):

   -64.2835 -64.2815 -64.2815 -64.2806 -31.1157 -31.1135 -31.1135 -31.1059
   -31.0720 -31.0655 -31.0655 -31.0567 -31.0560 -31.0548 -31.0548 -31.0488
    -8.1287  -7.8374  -7.8373  -7.7009   4.0448   4.1381   4.1381   4.4786
     6.1921   6.6032   6.6032   7.1653   7.2498   7.2895   7.2895   7.5890
    16.2058  17.1556  17.1556  17.5297  20.1207  20.3553

          k = 0.4000 0.4000 0.4000 (  8465 PWs)   bands (ev):

   -64.2826 -64.2815 -64.2815 -64.2815 -31.1246 -31.1246 -31.1246 -31.1205
   -31.0565 -31.0565 -31.0565 -31.0537 -31.0537 -31.0537 -31.0510 -31.0510
    -7.9569  -7.7913  -7.7913  -7.7912   3.6472   3.6473   3.6473   3.8283
     7.0930   7.0931   7.0931   7.3514   7.3514   7.3515   7.4810   7.4810
    15.9512  16.4583  16.4583  16.4583  20.5584  20.5585

          k = 0.4000 0.4000-0.4000 (  8465 PWs)   bands (ev):

   -64.2826 -64.2815 -64.2815 -64.2815 -31.1246 -31.1246 -31.1246 -31.1205
   -31.0565 -31.0565 -31.0565 -31.0537 -31.0537 -31.0537 -31.0510 -31.0510
    -7.9569  -7.7913  -7.7913  -7.7912   3.6472   3.6473   3.6473   3.8283
     7.0930   7.0931   7.0931   7.3514   7.3514   7.3515   7.4810   7.4810
    15.9512  16.4583  16.4583  16.4583  20.5584  20.5585

          k = 0.4000 0.4000-0.2000 (  8499 PWs)   bands (ev):

   -64.2835 -64.2815 -64.2815 -64.2806 -31.1157 -31.1135 -31.1135 -31.1059
   -31.0720 -31.0655 -31.0655 -31.0567 -31.0560 -31.0548 -31.0548 -31.0488
    -8.1287  -7.8374  -7.8373  -7.7009   4.0448   4.1381   4.1381   4.4786
     6.1921   6.6032   6.6032   7.1653   7.2498   7.2895   7.2895   7.5890
    16.2058  17.1556  17.1556  17.5297  20.1206  20.3554

          k = 0.4000-0.4000 0.0000 (  8510 PWs)   bands (ev):

   -64.2838 -64.2815 -64.2815 -64.2803 -31.1033 -31.1032 -31.1031 -31.0945
   -31.0869 -31.0750 -31.0750 -31.0645 -31.0568 -31.0549 -31.0549 -31.0480
    -8.2019  -7.8654  -7.8654  -7.6776   4.5832   4.5833   4.6169   4.9879
     5.4318   6.1434   6.1434   6.7441   7.2117   7.2690   7.2690   7.6309
    16.5379  17.7945  17.7945  18.2789  19.6319  20.0774

          k = 0.4000-0.4000 0.2000 (  8499 PWs)   bands (ev):

   -64.2835 -64.2815 -64.2815 -64.2806 -31.1157 -31.1135 -31.1135 -31.1059
   -31.0720 -31.0655 -31.0655 -31.0567 -31.0560 -31.0548 -31.0548 -31.0488
    -8.1287  -7.8374  -7.8373  -7.7009   4.0448   4.1381   4.1381   4.4786
     6.1921   6.6032   6.6032   7.1653   7.2498   7.2895   7.2895   7.5890
    16.2058  17.1556  17.1556  17.5297  20.1209  20.3554

          k = 0.4000-0.4000 0.4000 (  8465 PWs)   bands (ev):

   -64.2826 -64.2815 -64.2815 -64.2815 -31.1246 -31.1246 -31.1246 -31.1205
   -31.0565 -31.0565 -31.0565 -31.0537 -31.0537 -31.0537 -31.0510 -31.0510
    -7.9569  -7.7913  -7.7913  -7.7912   3.6472   3.6473   3.6473   3.8283
     7.0930   7.0931   7.0931   7.3514   7.3514   7.3515   7.4810   7.4810
    15.9512  16.4583  16.4583  16.4583  20.5584  20.5585

          k = 0.4000-0.4000-0.4000 (  8465 PWs)   bands (ev):

   -64.2826 -64.2815 -64.2815 -64.2815 -31.1246 -31.1246 -31.1246 -31.1205
   -31.0565 -31.0565 -31.0565 -31.0537 -31.0537 -31.0537 -31.0510 -31.0510
    -7.9569  -7.7913  -7.7913  -7.7912   3.6472   3.6473   3.6473   3.8283
     7.0930   7.0931   7.0931   7.3514   7.3514   7.3515   7.4810   7.4810
    15.9512  16.4583  16.4583  16.4583  20.5584  20.5585

          k = 0.4000-0.4000-0.2000 (  8499 PWs)   bands (ev):

   -64.2835 -64.2815 -64.2815 -64.2806 -31.1157 -31.1135 -31.1135 -31.1059
   -31.0720 -31.0655 -31.0655 -31.0567 -31.0560 -31.0548 -31.0548 -31.0488
    -8.1287  -7.8374  -7.8373  -7.7009   4.0448   4.1381   4.1381   4.4786
     6.1921   6.6032   6.6032   7.1653   7.2498   7.2895   7.2895   7.5890
    16.2058  17.1556  17.1556  17.5297  20.1205  20.3553

          k = 0.4000-0.2000 0.0000 (  8538 PWs)   bands (ev):

   -64.2857 -64.2825 -64.2796 -64.2793 -31.1033 -31.0972 -31.0966 -31.0953
   -31.0835 -31.0800 -31.0663 -31.0654 -31.0651 -31.0584 -31.0561 -31.0487
    -8.4905  -8.0489  -7.6163  -7.5624   4.6046   4.8051   4.9353   5.0638
     5.6579   5.7140   6.6971   6.8173   6.8340   7.1835   7.3062   7.6583
    15.6414  17.2265  18.7471  18.9614  19.1571  19.2684

          k = 0.4000-0.2000 0.2000 (  8510 PWs)   bands (ev):

   -64.2851 -64.2822 -64.2799 -64.2799 -31.1096 -31.1096 -31.1041 -31.0906
   -31.0789 -31.0789 -31.0623 -31.0623 -31.0616 -31.0590 -31.0518 -31.0499
    -8.3874  -7.9848  -7.6321  -7.6321   4.3411   4.3411   4.5446   5.1844
     5.8453   5.8453   6.8372   6.9496   6.9496   7.2024   7.5215   7.5360
    15.7320  17.1039  18.2408  18.2408  19.4441  20.0339

          k = 0.4000-0.2000 0.4000 (  8499 PWs)   bands (ev):

   -64.2835 -64.2815 -64.2815 -64.2806 -31.1157 -31.1135 -31.1135 -31.1059
   -31.0720 -31.0655 -31.0654 -31.0567 -31.0560 -31.0548 -31.0548 -31.0488
    -8.1287  -7.8374  -7.8373  -7.7009   4.0448   4.1381   4.1381   4.4786
     6.1921   6.6031   6.6032   7.1653   7.2498   7.2895   7.2896   7.5890
    16.2058  17.1556  17.1556  17.5297  20.1206  20.3554

          k = 0.4000-0.2000-0.4000 (  8499 PWs)   bands (ev):

   -64.2835 -64.2815 -64.2815 -64.2806 -31.1157 -31.1135 -31.1135 -31.1059
   -31.0720 -31.0655 -31.0654 -31.0567 -31.0560 -31.0548 -31.0548 -31.0488
    -8.1287  -7.8374  -7.8373  -7.7009   4.0448   4.1381   4.1381   4.4786
     6.1921   6.6031   6.6032   7.1653   7.2498   7.2895   7.2896   7.5890
    16.2058  17.1556  17.1556  17.5297  20.1210  20.3534

          k = 0.4000-0.2000-0.2000 (  8510 PWs)   bands (ev):

   -64.2851 -64.2822 -64.2799 -64.2799 -31.1096 -31.1096 -31.1041 -31.0906
   -31.0789 -31.0789 -31.0623 -31.0623 -31.0616 -31.0590 -31.0518 -31.0499
    -8.3874  -7.9848  -7.6321  -7.6321   4.3411   4.3411   4.5446   5.1844
     5.8453   5.8453   6.8372   6.9496   6.9496   7.2024   7.5215   7.5360
    15.7320  17.1039  18.2408  18.2408  19.4441  20.0339

     the Fermi energy is    10.0544 ev

!    total energy              =    -608.51633070 Ry
     estimated scf accuracy    <       0.00000002 Ry
     smearing contrib. (-TS)   =      -0.00000000 Ry
     internal energy E=F+TS    =    -608.51633070 Ry

     The total energy is F=E-TS. E is the sum of the following terms:
     one-electron contribution =    -297.28485513 Ry
     hartree contribution      =     166.02663794 Ry
     xc contribution           =     -97.98764698 Ry
     ewald contribution        =    -379.16241501 Ry
     DFT-D3 Dispersion         =      -0.10805152 Ry

     convergence has been achieved in   8 iterations

     Forces acting on atoms (cartesian axes, Ry/au):

     atom    1 type  1   force =     0.00000019    0.00000064   -0.00000025
     atom    2 type  1   force =     0.00000006    0.00000052   -0.00000001
     atom    3 type  1   force =    -0.00000013    0.00000001   -0.00000018
     atom    4 type  1   force =    -0.00000007   -0.00000112    0.00000051
     atom    5 type  2   force =    -0.00000020    0.00000007   -0.00000054
     atom    6 type  2   force =     0.00000009    0.00000073    0.00000016
     atom    7 type  2   force =    -0.00000012   -0.00000046    0.00000006
     atom    8 type  2   force =     0.00000019   -0.00000039    0.00000026

     Total force =     0.000002     Total SCF correction =     0.000016
     SCF correction compared to forces is large: reduce conv_thr to get better values


     Computing stress (Cartesian axis) and pressure

          total   stress  (Ry/bohr**3)                   (kbar)     P=       12.04
   0.00008183   0.00000000   0.00000000           12.04        0.00        0.00
   0.00000000   0.00008183  -0.00000000            0.00       12.04       -0.00
   0.00000000  -0.00000000   0.00008183            0.00       -0.00       12.04


     BFGS Geometry Optimization

     number of scf cycles    =   1
     number of bfgs steps    =   0

     enthalpy new            =    -608.7732436104 Ry

     new trust radius        =       0.0664090496 bohr
     new conv_thr            =       0.0000010000 Ry

     new unit-cell volume =    526.60276 a.u.^3 (    78.03448 Ang^3 )
     density =      3.43060 g/cm^3

CELL_PARAMETERS (angstrom)
   4.273288282   0.000000098   0.000000009
   0.000000098   4.273288093  -0.000000077
   0.000000009  -0.000000077   4.273288001

ATOMIC_POSITIONS (angstrom)
Mg            0.0000001044        0.0000003451       -0.0000001352
Mg            0.0000000859        2.1366442850        2.1366439540
Mg            2.1366440740        0.0000000144        2.1366439066
Mg            2.1366441523        2.1366434947        0.0000002409
O             2.1366440848        2.1366440939        2.1366436770
O             2.1366441869        0.0000004425        0.0000000885
O            -0.0000000166        2.1366437996       -0.0000000088
O             0.0000001064       -0.0000002464        2.1366441416


     NEW-OLD atomic charge density approx. for the potential
     extrapolated charge   66.75789, renormalised to   64.00000

     total cpu time spent up to now is       62.6 secs

     Self-consistent Calculation

     iteration #  1     ecut=   100.00 Ry     beta= 0.50
     Davidson diagonalization with overlap
     ethr =  1.00E-06,  avg # of iterations =  8.9

     total cpu time spent up to now is       75.4 secs

     total energy              =    -608.24678156 Ry
     estimated scf accuracy    <       0.15056391 Ry

     iteration #  2     ecut=   100.00 Ry     beta= 0.50
     Davidson diagonalization with overlap
     ethr =  2.35E-04,  avg # of iterations =  3.0

     total cpu time spent up to now is       81.8 secs

     total energy              =    -608.51918422 Ry
     estimated scf accuracy    <       0.24020739 Ry

     iteration #  3     ecut=   100.00 Ry     beta= 0.50
     Davidson diagonalization with overlap
     ethr =  2.35E-04,  avg # of iterations =  2.0

     total cpu time spent up to now is       86.8 secs

     total energy              =    -608.51858770 Ry
     estimated scf accuracy    <       0.05472149 Ry

     iteration #  4     ecut=   100.00 Ry     beta= 0.50
     Davidson diagonalization with overlap
     ethr =  8.55E-05,  avg # of iterations =  1.2

     total cpu time spent up to now is       91.7 secs

     total energy              =    -608.51016563 Ry
     estimated scf accuracy    <       0.01999527 Ry

     iteration #  5     ecut=   100.00 Ry     beta= 0.50
     Davidson diagonalization with overlap
     ethr =  3.12E-05,  avg # of iterations =  2.0

     total cpu time spent up to now is       96.5 secs

     total energy              =    -608.51299094 Ry
     estimated scf accuracy    <       0.00034761 Ry

     iteration #  6     ecut=   100.00 Ry     beta= 0.50
     Davidson diagonalization with overlap
     ethr =  5.43E-07,  avg # of iterations =  4.2

     total cpu time spent up to now is      101.3 secs

     total energy              =    -608.51306887 Ry
     estimated scf accuracy    <       0.00016603 Ry

     iteration #  7     ecut=   100.00 Ry     beta= 0.50
     Davidson diagonalization with overlap
     ethr =  2.59E-07,  avg # of iterations =  1.0

     total cpu time spent up to now is      105.6 secs

     total energy              =    -608.51293364 Ry
     estimated scf accuracy    <       0.00027333 Ry

     iteration #  8     ecut=   100.00 Ry     beta= 0.50
     Davidson diagonalization with overlap
     ethr =  2.59E-07,  avg # of iterations =  2.0

     total cpu time spent up to now is      111.4 secs

     total energy              =    -608.51296367 Ry
     estimated scf accuracy    <       0.00000910 Ry

     iteration #  9     ecut=   100.00 Ry     beta= 0.50
     Davidson diagonalization with overlap
     ethr =  1.42E-08,  avg # of iterations =  2.0

     total cpu time spent up to now is      116.8 secs

     End of self-consistent calculation

          k = 0.0000 0.0000 0.0000 (  8409 PWs)   bands (ev):

   -64.9779 -64.9688 -64.9687 -64.9687 -31.7882 -31.7882 -31.7882 -31.7514
   -31.7514 -31.7514 -31.7514 -31.7514 -31.7514 -31.7274 -31.7273 -31.7273
    -9.4455  -8.0257  -8.0257  -8.0257   3.6645   3.6645   3.6645   6.2568
     6.2568   6.2568   6.2568   6.2568   6.2568   7.5322   7.5322   7.5322
    11.8882  16.6974  16.6974  17.0808  17.0808  17.0808

          k =-0.0000 0.0000 0.1971 (  8501 PWs)   bands (ev):

   -64.9771 -64.9696 -64.9687 -64.9687 -31.7846 -31.7846 -31.7830 -31.7549
   -31.7549 -31.7520 -31.7520 -31.7491 -31.7491 -31.7338 -31.7296 -31.7296
    -9.3126  -8.1628  -8.0069  -8.0068   3.8494   3.8494   3.8744   5.9123
     5.9123   6.1131   6.1131   6.3612   6.3612   6.8299   7.3891   7.3891
    12.7164  16.9322  17.0179  17.2234  17.2234  17.6501

          k =-0.0000 0.0000 0.3942 (  8542 PWs)   bands (ev):

   -64.9747 -64.9719 -64.9687 -64.9687 -31.7754 -31.7754 -31.7688 -31.7641
   -31.7641 -31.7529 -31.7529 -31.7500 -31.7431 -31.7431 -31.7356 -31.7356
    -8.9613  -8.5214  -7.9760  -7.9760   4.3774   4.3774   4.5218   5.1463
     5.1463   5.5809   5.8919   5.8919   6.6492   6.6492   7.0395   7.0395
    14.3470  15.9606  17.9749  18.3620  18.3620  18.8949

          k =-0.0000 0.1971 0.0000 (  8501 PWs)   bands (ev):

   -64.9771 -64.9696 -64.9688 -64.9687 -31.7846 -31.7846 -31.7830 -31.7549
   -31.7549 -31.7520 -31.7519 -31.7491 -31.7491 -31.7338 -31.7296 -31.7296
    -9.3126  -8.1628  -8.0069  -8.0068   3.8494   3.8494   3.8744   5.9123
     5.9123   6.1131   6.1132   6.3612   6.3612   6.8299   7.3891   7.3891
    12.7164  16.9322  17.0179  17.2234  17.2234  17.6501

          k =-0.0000 0.1971 0.1971 (  8512 PWs)   bands (ev):

   -64.9763 -64.9695 -64.9695 -64.9688 -31.7817 -31.7817 -31.7812 -31.7622
   -31.7525 -31.7525 -31.7485 -31.7485 -31.7476 -31.7429 -31.7320 -31.7281
    -9.1871  -8.1285  -8.1285  -8.0017   3.9641   3.9641   4.0306   5.3161
     6.0320   6.0320   6.2010   6.2856   6.2856   6.3899   7.2214   7.4290
    13.3085  17.2823  17.3885  17.3885  17.4929  17.4929

          k =-0.0000 0.1971 0.3942 (  8538 PWs)   bands (ev):

   -64.9742 -64.9716 -64.9693 -64.9690 -31.7778 -31.7725 -31.7723 -31.7710
   -31.7613 -31.7581 -31.7470 -31.7461 -31.7459 -31.7404 -31.7383 -31.7321
    -8.8579  -8.4523  -8.0574  -8.0085   4.2201   4.3927   4.5464   4.6629
     5.1964   5.2937   6.2332   6.3497   6.3631   6.6987   6.8141   7.1540
    14.6831  16.2447  17.9432  18.1974  18.2809  18.4968

          k =-0.0000 0.1971-0.3942 (  8538 PWs)   bands (ev):

   -64.9742 -64.9716 -64.9693 -64.9690 -31.7778 -31.7725 -31.7723 -31.7710
   -31.7613 -31.7581 -31.7470 -31.7461 -31.7459 -31.7404 -31.7383 -31.7321
    -8.8579  -8.4523  -8.0574  -8.0085   4.2201   4.3927   4.5464   4.6629
     5.1964   5.2937   6.2332   6.3497   6.3631   6.6987   6.8141   7.1540
    14.6831  16.2447  17.9432  18.1974  18.2809  18.4968

          k =-0.0000 0.1971-0.1971 (  8512 PWs)   bands (ev):

   -64.9763 -64.9695 -64.9695 -64.9688 -31.7817 -31.7817 -31.7812 -31.7622
   -31.7525 -31.7525 -31.7485 -31.7485 -31.7476 -31.7429 -31.7320 -31.7281
    -9.1871  -8.1285  -8.1285  -8.0017   3.9641   3.9641   4.0306   5.3161
     6.0320   6.0320   6.2010   6.2856   6.2856   6.3899   7.2214   7.4290
    13.3085  17.2823  17.3885  17.3885  17.4929  17.4929

          k =-0.0000 0.3942 0.0000 (  8542 PWs)   bands (ev):

   -64.9747 -64.9719 -64.9688 -64.9687 -31.7754 -31.7754 -31.7688 -31.7641
   -31.7641 -31.7529 -31.7528 -31.7500 -31.7431 -31.7431 -31.7356 -31.7356
    -8.9613  -8.5214  -7.9760  -7.9760   4.3774   4.3774   4.5218   5.1463
     5.1463   5.5809   5.8919   5.8919   6.6492   6.6492   7.0395   7.0395
    14.3470  15.9606  17.9749  18.3620  18.3620  18.8949

          k =-0.0000 0.3942 0.1971 (  8538 PWs)   bands (ev):

   -64.9742 -64.9716 -64.9693 -64.9690 -31.7778 -31.7725 -31.7723 -31.7710
   -31.7613 -31.7581 -31.7470 -31.7461 -31.7459 -31.7404 -31.7383 -31.7321
    -8.8579  -8.4523  -8.0574  -8.0085   4.2201   4.3927   4.5464   4.6629
     5.1964   5.2937   6.2332   6.3497   6.3631   6.6987   6.8142   7.1540
    14.6831  16.2447  17.9432  18.1974  18.2809  18.4968

          k =-0.0000 0.3942 0.3942 (  8510 PWs)   bands (ev):

   -64.9727 -64.9708 -64.9708 -64.9698 -31.7776 -31.7775 -31.7775 -31.7702
   -31.7642 -31.7542 -31.7542 -31.7454 -31.7391 -31.7374 -31.7374 -31.7316
    -8.5941  -8.2862  -8.2862  -8.1150   4.1852   4.1853   4.2266   4.5599
     5.0244   5.7061   5.7061   6.2802   6.7327   6.7870   6.7870   7.1341
    15.5861  16.8468  16.8468  17.4055  18.8489  19.2204

          k =-0.0000 0.3942-0.3942 (  8510 PWs)   bands (ev):

   -64.9727 -64.9708 -64.9708 -64.9698 -31.7776 -31.7775 -31.7775 -31.7702
   -31.7642 -31.7542 -31.7542 -31.7454 -31.7391 -31.7374 -31.7374 -31.7316
    -8.5941  -8.2862  -8.2862  -8.1150   4.1852   4.1853   4.2266   4.5599
     5.0244   5.7061   5.7061   6.2802   6.7327   6.7870   6.7870   7.1341
    15.5861  16.8468  16.8468  17.4055  18.8489  18.8489

          k =-0.0000 0.3942-0.1971 (  8538 PWs)   bands (ev):

   -64.9742 -64.9716 -64.9693 -64.9690 -31.7778 -31.7725 -31.7723 -31.7710
   -31.7613 -31.7581 -31.7470 -31.7461 -31.7459 -31.7404 -31.7383 -31.7321
    -8.8579  -8.4523  -8.0574  -8.0085   4.2201   4.3927   4.5464   4.6629
     5.1964   5.2937   6.2332   6.3497   6.3631   6.6987   6.8141   7.1540
    14.6831  16.2447  17.9432  18.1974  18.2809  18.4968

          k = 0.1971-0.0000-0.0000 (  8501 PWs)   bands (ev):

   -64.9771 -64.9696 -64.9687 -64.9687 -31.7846 -31.7846 -31.7830 -31.7549
   -31.7549 -31.7520 -31.7520 -31.7491 -31.7491 -31.7338 -31.7296 -31.7296
    -9.3126  -8.1628  -8.0068  -8.0068   3.8494   3.8494   3.8744   5.9123
     5.9123   6.1131   6.1131   6.3612   6.3612   6.8299   7.3891   7.3891
    12.7164  16.9322  17.0179  17.2234  17.2234  17.6501

          k = 0.1971-0.0000 0.1971 (  8512 PWs)   bands (ev):

   -64.9763 -64.9695 -64.9695 -64.9688 -31.7817 -31.7817 -31.7812 -31.7622
   -31.7525 -31.7525 -31.7485 -31.7485 -31.7476 -31.7429 -31.7320 -31.7281
    -9.1871  -8.1286  -8.1285  -8.0017   3.9641   3.9641   4.0306   5.3161
     6.0319   6.0320   6.2010   6.2856   6.2856   6.3899   7.2214   7.4290
    13.3085  17.2823  17.3885  17.3885  17.4929  17.4929

          k = 0.1971 0.0000 0.3942 (  8538 PWs)   bands (ev):

   -64.9742 -64.9716 -64.9693 -64.9690 -31.7778 -31.7725 -31.7723 -31.7710
   -31.7613 -31.7581 -31.7470 -31.7461 -31.7459 -31.7404 -31.7383 -31.7321
    -8.8579  -8.4523  -8.0574  -8.0085   4.2201   4.3927   4.5464   4.6629
     5.1964   5.2937   6.2332   6.3497   6.3631   6.6987   6.8142   7.1540
    14.6831  16.2447  17.9432  18.1974  18.4968  19.3576

          k = 0.1971-0.0000-0.3942 (  8538 PWs)   bands (ev):

   -64.9742 -64.9716 -64.9693 -64.9690 -31.7778 -31.7725 -31.7723 -31.7710
   -31.7613 -31.7581 -31.7470 -31.7461 -31.7459 -31.7404 -31.7383 -31.7321
    -8.8579  -8.4523  -8.0574  -8.0085   4.2201   4.3927   4.5464   4.6629
     5.1964   5.2937   6.2332   6.3497   6.3631   6.6987   6.8142   7.1540
    14.6831  16.2447  17.9432  18.1974  18.2809  18.4968

          k = 0.1971-0.0000-0.1971 (  8512 PWs)   bands (ev):

   -64.9763 -64.9695 -64.9695 -64.9688 -31.7817 -31.7817 -31.7812 -31.7622
   -31.7525 -31.7525 -31.7485 -31.7485 -31.7476 -31.7429 -31.7320 -31.7281
    -9.1871  -8.1286  -8.1285  -8.0017   3.9641   3.9641   4.0306   5.3161
     6.0319   6.0320   6.2010   6.2856   6.2856   6.3899   7.2214   7.4290
    13.3085  17.2823  17.3885  17.3885  17.4929  17.4929

          k = 0.1971 0.1971 0.0000 (  8512 PWs)   bands (ev):

   -64.9763 -64.9695 -64.9695 -64.9688 -31.7817 -31.7817 -31.7812 -31.7622
   -31.7525 -31.7525 -31.7485 -31.7485 -31.7476 -31.7429 -31.7320 -31.7281
    -9.1871  -8.1286  -8.1285  -8.0017   3.9641   3.9641   4.0306   5.3161
     6.0320   6.0320   6.2010   6.2856   6.2856   6.3899   7.2214   7.4290
    13.3085  17.2823  17.3885  17.3885  17.4929  17.4929

          k = 0.1971 0.1971 0.1971 (  8517 PWs)   bands (ev):

   -64.9755 -64.9695 -64.9695 -64.9695 -31.7821 -31.7821 -31.7821 -31.7554
   -31.7554 -31.7554 -31.7521 -31.7457 -31.7457 -31.7457 -31.7300 -31.7300
    -9.0695  -8.1075  -8.1075  -8.1075   3.9769   3.9769   3.9769   5.6261
     5.6699   5.6699   5.6699   6.4775   6.4775   6.4775   7.3162   7.3162
    13.7108  17.1588  17.1588  17.1588  18.3095  18.3095

          k = 0.1971 0.1971 0.3942 (  8510 PWs)   bands (ev):

   -64.9737 -64.9714 -64.9695 -64.9695 -31.7829 -31.7829 -31.7782 -31.7669
   -31.7575 -31.7575 -31.7436 -31.7436 -31.7431 -31.7408 -31.7348 -31.7332
    -8.7640  -8.3947  -8.0731  -8.0731   3.9673   3.9673   4.1456   4.7461
     5.4196   5.4196   6.3710   6.4779   6.4779   6.7171   7.0255   7.0362
    14.7982  16.1823  17.4025  17.4025  18.6589  19.0930

          k = 0.1971 0.1971-0.3942 (  8510 PWs)   bands (ev):

   -64.9737 -64.9714 -64.9695 -64.9695 -31.7829 -31.7829 -31.7782 -31.7669
   -31.7575 -31.7575 -31.7436 -31.7436 -31.7431 -31.7408 -31.7348 -31.7332
    -8.7640  -8.3947  -8.0731  -8.0731   3.9673   3.9673   4.1456   4.7461
     5.4196   5.4196   6.3710   6.4778   6.4779   6.7171   7.0255   7.0362
    14.7982  16.1823  17.4025  17.4025  18.6589  19.0930

          k = 0.1971 0.1971-0.1971 (  8517 PWs)   bands (ev):

   -64.9755 -64.9695 -64.9695 -64.9695 -31.7821 -31.7821 -31.7821 -31.7554
   -31.7554 -31.7554 -31.7521 -31.7457 -31.7457 -31.7457 -31.7300 -31.7300
    -9.0695  -8.1075  -8.1075  -8.1075   3.9769   3.9769   3.9769   5.6261
     5.6699   5.6699   5.6699   6.4775   6.4775   6.4775   7.3162   7.3162
    13.7108  17.1588  17.1588  17.1588  18.3095  18.3095

          k = 0.1971 0.3942 0.0000 (  8538 PWs)   bands (ev):

   -64.9742 -64.9716 -64.9693 -64.9690 -31.7778 -31.7725 -31.7723 -31.7710
   -31.7613 -31.7581 -31.7470 -31.7461 -31.7459 -31.7404 -31.7383 -31.7321
    -8.8579  -8.4523  -8.0574  -8.0085   4.2201   4.3927   4.5464   4.6629
     5.1964   5.2937   6.2332   6.3497   6.3631   6.6987   6.8141   7.1540
    14.6831  16.2447  17.9432  18.1974  18.2809  18.4968

          k = 0.1971 0.3942 0.1971 (  8510 PWs)   bands (ev):

   -64.9737 -64.9714 -64.9695 -64.9695 -31.7829 -31.7829 -31.7782 -31.7669
   -31.7575 -31.7575 -31.7436 -31.7436 -31.7431 -31.7408 -31.7348 -31.7332
    -8.7640  -8.3947  -8.0731  -8.0731   3.9673   3.9673   4.1456   4.7461
     5.4196   5.4196   6.3710   6.4778   6.4779   6.7171   7.0255   7.0362
    14.7982  16.1823  17.4025  17.4025  18.6589  19.0930

          k = 0.1971 0.3942 0.3942 (  8499 PWs)   bands (ev):

   -64.9724 -64.9708 -64.9708 -64.9701 -31.7880 -31.7861 -31.7861 -31.7797
   -31.7517 -31.7462 -31.7462 -31.7389 -31.7383 -31.7373 -31.7373 -31.7323
    -8.5281  -8.2619  -8.2619  -8.1376   3.6806   3.7631   3.7631   4.0779
     5.7528   6.1473   6.1473   6.6844   6.7696   6.8070   6.8070   7.0945
    15.3103  16.2864  16.2864  16.6884  19.2080  19.2083

          k = 0.1971 0.3942-0.3942 (  8499 PWs)   bands (ev):

   -64.9724 -64.9708 -64.9708 -64.9701 -31.7880 -31.7861 -31.7861 -31.7797
   -31.7517 -31.7462 -31.7462 -31.7389 -31.7383 -31.7373 -31.7373 -31.7323
    -8.5281  -8.2619  -8.2619  -8.1376   3.6806   3.7631   3.7631   4.0779
     5.7528   6.1473   6.1473   6.6844   6.7696   6.8070   6.8070   7.0945
    15.3103  16.2864  16.2864  16.6884  19.2080  19.3846

          k = 0.1971 0.3942-0.1971 (  8510 PWs)   bands (ev):

   -64.9737 -64.9714 -64.9695 -64.9695 -31.7829 -31.7829 -31.7782 -31.7669
   -31.7575 -31.7575 -31.7436 -31.7436 -31.7431 -31.7408 -31.7348 -31.7332
    -8.7640  -8.3947  -8.0731  -8.0731   3.9673   3.9673   4.1456   4.7461
     5.4196   5.4196   6.3710   6.4778   6.4779   6.7171   7.0255   7.0362
    14.7982  16.1823  17.4025  17.4025  18.6589  19.0930

          k = 0.1971-0.3942-0.0000 (  8538 PWs)   bands (ev):

   -64.9742 -64.9716 -64.9693 -64.9690 -31.7778 -31.7725 -31.7723 -31.7710
   -31.7613 -31.7581 -31.7470 -31.7461 -31.7459 -31.7404 -31.7383 -31.7321
    -8.8579  -8.4523  -8.0574  -8.0085   4.2201   4.3927   4.5464   4.6629
     5.1964   5.2937   6.2332   6.3497   6.3631   6.6987   6.8142   7.1540
    14.6831  16.2447  17.9432  18.1974  18.2809  18.4968

          k = 0.1971-0.3942 0.1971 (  8510 PWs)   bands (ev):

   -64.9737 -64.9714 -64.9695 -64.9695 -31.7829 -31.7829 -31.7782 -31.7669
   -31.7575 -31.7575 -31.7436 -31.7436 -31.7431 -31.7408 -31.7348 -31.7332
    -8.7640  -8.3947  -8.0731  -8.0731   3.9673   3.9673   4.1456   4.7461
     5.4196   5.4196   6.3710   6.4778   6.4779   6.7171   7.0255   7.0362
    14.7982  16.1823  17.4025  17.4025  18.6589  19.0930

          k = 0.1971-0.3942 0.3942 (  8499 PWs)   bands (ev):

   -64.9724 -64.9708 -64.9708 -64.9701 -31.7880 -31.7861 -31.7861 -31.7797
   -31.7517 -31.7462 -31.7462 -31.7389 -31.7383 -31.7373 -31.7373 -31.7323
    -8.5281  -8.2619  -8.2619  -8.1376   3.6806   3.7631   3.7631   4.0779
     5.7528   6.1473   6.1473   6.6844   6.7696   6.8070   6.8070   7.0945
    15.3103  16.2863  16.2864  16.6884  19.2080  19.2082

          k = 0.1971-0.3942-0.3942 (  8499 PWs)   bands (ev):

   -64.9724 -64.9708 -64.9708 -64.9701 -31.7880 -31.7861 -31.7861 -31.7797
   -31.7517 -31.7462 -31.7462 -31.7389 -31.7383 -31.7373 -31.7373 -31.7323
    -8.5281  -8.2619  -8.2619  -8.1376   3.6806   3.7631   3.7631   4.0779
     5.7528   6.1473   6.1473   6.6844   6.7696   6.8070   6.8070   7.0945
    15.3103  16.2864  16.2864  16.6884  19.2080  19.2086

          k = 0.1971-0.3942-0.1971 (  8510 PWs)   bands (ev):

   -64.9737 -64.9714 -64.9695 -64.9695 -31.7829 -31.7829 -31.7782 -31.7669
   -31.7575 -31.7575 -31.7436 -31.7436 -31.7431 -31.7408 -31.7348 -31.7332
    -8.7640  -8.3947  -8.0731  -8.0731   3.9673   3.9673   4.1456   4.7461
     5.4196   5.4196   6.3710   6.4778   6.4779   6.7171   7.0255   7.0362
    14.7982  16.1823  17.4025  17.4025  18.6589  19.0930

          k = 0.1971-0.1971-0.0000 (  8512 PWs)   bands (ev):

   -64.9763 -64.9695 -64.9695 -64.9688 -31.7817 -31.7817 -31.7812 -31.7622
   -31.7525 -31.7525 -31.7485 -31.7485 -31.7476 -31.7429 -31.7320 -31.7281
    -9.1871  -8.1286  -8.1285  -8.0017   3.9641   3.9641   4.0306   5.3161
     6.0320   6.0320   6.2010   6.2856   6.2856   6.3899   7.2214   7.4290
    13.3085  17.2823  17.3885  17.3885  17.4929  17.4929

          k = 0.1971-0.1971 0.1971 (  8517 PWs)   bands (ev):

   -64.9755 -64.9695 -64.9695 -64.9695 -31.7821 -31.7821 -31.7821 -31.7554
   -31.7554 -31.7554 -31.7521 -31.7457 -31.7457 -31.7457 -31.7300 -31.7300
    -9.0695  -8.1075  -8.1075  -8.1075   3.9769   3.9769   3.9769   5.6261
     5.6699   5.6699   5.6699   6.4775   6.4775   6.4775   7.3162   7.3162
    13.7108  17.1588  17.1588  17.1588  18.3095  18.3095

          k = 0.1971-0.1971 0.3942 (  8510 PWs)   bands (ev):

   -64.9737 -64.9714 -64.9695 -64.9695 -31.7829 -31.7829 -31.7782 -31.7669
   -31.7575 -31.7575 -31.7436 -31.7436 -31.7431 -31.7408 -31.7348 -31.7332
    -8.7640  -8.3947  -8.0731  -8.0731   3.9673   3.9673   4.1456   4.7461
     5.4196   5.4196   6.3710   6.4779   6.4779   6.7171   7.0255   7.0362
    14.7982  16.1823  17.4025  17.4025  18.6589  19.0930

          k = 0.1971-0.1971-0.3942 (  8510 PWs)   bands (ev):

   -64.9737 -64.9714 -64.9695 -64.9695 -31.7829 -31.7829 -31.7782 -31.7669
   -31.7575 -31.7575 -31.7436 -31.7436 -31.7431 -31.7408 -31.7348 -31.7332
    -8.7640  -8.3947  -8.0731  -8.0731   3.9673   3.9673   4.1456   4.7461
     5.4196   5.4196   6.3710   6.4778   6.4779   6.7171   7.0255   7.0362
    14.7982  16.1823  17.4025  17.4025  18.6589  19.0930

          k = 0.1971-0.1971-0.1971 (  8517 PWs)   bands (ev):

   -64.9755 -64.9695 -64.9695 -64.9695 -31.7821 -31.7821 -31.7821 -31.7554
   -31.7554 -31.7554 -31.7521 -31.7457 -31.7457 -31.7457 -31.7300 -31.7300
    -9.0695  -8.1075  -8.1075  -8.1075   3.9769   3.9769   3.9769   5.6261
     5.6699   5.6699   5.6699   6.4775   6.4775   6.4775   7.3162   7.3162
    13.7108  17.1588  17.1588  17.1588  18.3095  18.3095

          k = 0.3942-0.0000-0.0000 (  8542 PWs)   bands (ev):

   -64.9747 -64.9719 -64.9687 -64.9687 -31.7754 -31.7754 -31.7688 -31.7641
   -31.7641 -31.7529 -31.7529 -31.7500 -31.7431 -31.7431 -31.7356 -31.7356
    -8.9613  -8.5214  -7.9760  -7.9760   4.3774   4.3774   4.5218   5.1463
     5.1463   5.5809   5.8919   5.8919   6.6492   6.6492   7.0395   7.0395
    14.3470  15.9606  17.9749  18.3620  18.3620  18.8949

          k = 0.3942-0.0000 0.1971 (  8538 PWs)   bands (ev):

   -64.9742 -64.9716 -64.9693 -64.9690 -31.7778 -31.7725 -31.7723 -31.7710
   -31.7613 -31.7581 -31.7470 -31.7461 -31.7459 -31.7404 -31.7383 -31.7321
    -8.8579  -8.4523  -8.0574  -8.0085   4.2201   4.3927   4.5464   4.6629
     5.1964   5.2937   6.2332   6.3497   6.3631   6.6987   6.8142   7.1540
    14.6831  16.2447  17.9432  18.1974  18.2809  18.4968

          k = 0.3942-0.0000 0.3942 (  8510 PWs)   bands (ev):

   -64.9727 -64.9708 -64.9708 -64.9698 -31.7776 -31.7775 -31.7775 -31.7702
   -31.7642 -31.7542 -31.7542 -31.7454 -31.7391 -31.7375 -31.7374 -31.7316
    -8.5941  -8.2862  -8.2862  -8.1150   4.1852   4.1853   4.2266   4.5599
     5.0244   5.7061   5.7061   6.2802   6.7327   6.7870   6.7870   7.1341
    15.5861  16.8468  16.8468  17.4055  18.8489  18.8489

          k = 0.3942-0.0000-0.3942 (  8510 PWs)   bands (ev):

   -64.9727 -64.9708 -64.9708 -64.9698 -31.7776 -31.7775 -31.7775 -31.7702
   -31.7642 -31.7542 -31.7542 -31.7454 -31.7391 -31.7375 -31.7374 -31.7316
    -8.5941  -8.2862  -8.2862  -8.1150   4.1852   4.1853   4.2266   4.5599
     5.0244   5.7061   5.7061   6.2802   6.7327   6.7870   6.7870   7.1341
    15.5861  16.8468  16.8468  17.4055  18.8489  18.8489

          k = 0.3942-0.0000-0.1971 (  8538 PWs)   bands (ev):

   -64.9742 -64.9716 -64.9693 -64.9690 -31.7778 -31.7725 -31.7723 -31.7710
   -31.7613 -31.7581 -31.7470 -31.7461 -31.7459 -31.7404 -31.7383 -31.7321
    -8.8579  -8.4523  -8.0574  -8.0085   4.2201   4.3927   4.5464   4.6629
     5.1964   5.2937   6.2332   6.3497   6.3631   6.6987   6.8142   7.1540
    14.6831  16.2447  17.9432  18.1974  18.2809  18.4968

          k = 0.3942 0.1971 0.0000 (  8538 PWs)   bands (ev):

   -64.9742 -64.9716 -64.9693 -64.9690 -31.7778 -31.7725 -31.7723 -31.7710
   -31.7613 -31.7581 -31.7470 -31.7461 -31.7459 -31.7404 -31.7383 -31.7321
    -8.8579  -8.4523  -8.0574  -8.0085   4.2201   4.3927   4.5464   4.6629
     5.1964   5.2937   6.2332   6.3497   6.3631   6.6987   6.8141   7.1540
    14.6831  16.2447  17.9432  18.1974  18.2809  18.4968

          k = 0.3942 0.1971 0.1971 (  8510 PWs)   bands (ev):

   -64.9737 -64.9714 -64.9695 -64.9695 -31.7829 -31.7829 -31.7782 -31.7669
   -31.7575 -31.7575 -31.7436 -31.7436 -31.7431 -31.7408 -31.7348 -31.7332
    -8.7640  -8.3947  -8.0731  -8.0731   3.9673   3.9673   4.1456   4.7461
     5.4196   5.4196   6.3710   6.4779   6.4779   6.7171   7.0255   7.0362
    14.7982  16.1823  17.4025  17.4025  18.6589  19.0930

          k = 0.3942 0.1971 0.3942 (  8499 PWs)   bands (ev):

   -64.9724 -64.9708 -64.9708 -64.9701 -31.7880 -31.7861 -31.7861 -31.7797
   -31.7517 -31.7463 -31.7462 -31.7389 -31.7383 -31.7373 -31.7373 -31.7323
    -8.5281  -8.2619  -8.2619  -8.1376   3.6806   3.7631   3.7631   4.0779
     5.7528   6.1473   6.1473   6.6844   6.7696   6.8070   6.8070   7.0945
    15.3103  16.2863  16.2864  16.6884  19.2080  19.2080

          k = 0.3942 0.1971-0.3942 (  8499 PWs)   bands (ev):

   -64.9724 -64.9708 -64.9708 -64.9701 -31.7880 -31.7861 -31.7861 -31.7797
   -31.7517 -31.7463 -31.7462 -31.7389 -31.7383 -31.7373 -31.7373 -31.7323
    -8.5281  -8.2619  -8.2619  -8.1376   3.6806   3.7631   3.7631   4.0779
     5.7528   6.1473   6.1473   6.6844   6.7696   6.8070   6.8070   7.0945
    15.3103  16.2863  16.2864  16.6884  19.2080  19.3842

          k = 0.3942 0.1971-0.1971 (  8510 PWs)   bands (ev):

   -64.9737 -64.9714 -64.9695 -64.9695 -31.7829 -31.7829 -31.7782 -31.7669
   -31.7575 -31.7575 -31.7436 -31.7436 -31.7431 -31.7408 -31.7348 -31.7332
    -8.7640  -8.3947  -8.0731  -8.0731   3.9673   3.9673   4.1456   4.7461
     5.4196   5.4196   6.3710   6.4779   6.4779   6.7171   7.0255   7.0362
    14.7982  16.1823  17.4025  17.4025  18.6589  19.0930

          k = 0.3942 0.3942 0.0000 (  8510 PWs)   bands (ev):

   -64.9727 -64.9708 -64.9708 -64.9698 -31.7776 -31.7775 -31.7775 -31.7702
   -31.7642 -31.7542 -31.7542 -31.7454 -31.7391 -31.7374 -31.7374 -31.7316
    -8.5941  -8.2862  -8.2862  -8.1150   4.1852   4.1853   4.2266   4.5599
     5.0244   5.7061   5.7061   6.2802   6.7327   6.7870   6.7870   7.1341
    15.5861  16.8468  16.8468  17.4055  18.8489  18.8489

          k = 0.3942 0.3942 0.1971 (  8499 PWs)   bands (ev):

   -64.9724 -64.9708 -64.9708 -64.9701 -31.7880 -31.7861 -31.7861 -31.7797
   -31.7517 -31.7462 -31.7462 -31.7389 -31.7383 -31.7373 -31.7373 -31.7323
    -8.5281  -8.2619  -8.2619  -8.1376   3.6806   3.7631   3.7631   4.0779
     5.7528   6.1473   6.1473   6.6844   6.7696   6.8070   6.8070   7.0945
    15.3103  16.2863  16.2864  16.6884  19.2080  19.2080

          k = 0.3942 0.3942 0.3942 (  8465 PWs)   bands (ev):

   -64.9717 -64.9708 -64.9708 -64.9708 -31.7953 -31.7952 -31.7952 -31.7918
   -31.7388 -31.7387 -31.7387 -31.7365 -31.7364 -31.7364 -31.7342 -31.7342
    -8.3730  -8.2220  -8.2220  -8.2220   3.2967   3.2967   3.2968   3.4632
     6.6203   6.6203   6.6203   6.8678   6.8678   6.8678   6.9919   6.9919
    15.1160  15.6369  15.6369  15.6369  19.5469  19.5503

          k = 0.3942 0.3942-0.3942 (  8465 PWs)   bands (ev):

   -64.9717 -64.9708 -64.9708 -64.9708 -31.7953 -31.7952 -31.7952 -31.7918
   -31.7388 -31.7387 -31.7387 -31.7365 -31.7364 -31.7364 -31.7342 -31.7342
    -8.3730  -8.2220  -8.2220  -8.2220   3.2967   3.2967   3.2968   3.4632
     6.6203   6.6203   6.6203   6.8678   6.8678   6.8678   6.9919   6.9919
    15.1160  15.6369  15.6369  15.6369  19.5469  19.5503

          k = 0.3942 0.3942-0.1971 (  8499 PWs)   bands (ev):

   -64.9724 -64.9708 -64.9708 -64.9701 -31.7880 -31.7861 -31.7861 -31.7797
   -31.7517 -31.7462 -31.7462 -31.7389 -31.7383 -31.7373 -31.7373 -31.7323
    -8.5281  -8.2619  -8.2619  -8.1376   3.6806   3.7631   3.7631   4.0779
     5.7528   6.1473   6.1473   6.6844   6.7696   6.8070   6.8070   7.0945
    15.3103  16.2864  16.2864  16.6884  19.2080  19.3843

          k = 0.3942-0.3942-0.0000 (  8510 PWs)   bands (ev):

   -64.9727 -64.9708 -64.9708 -64.9698 -31.7776 -31.7775 -31.7775 -31.7702
   -31.7642 -31.7542 -31.7542 -31.7454 -31.7391 -31.7374 -31.7374 -31.7316
    -8.5941  -8.2862  -8.2862  -8.1150   4.1852   4.1853   4.2266   4.5599
     5.0244   5.7061   5.7061   6.2802   6.7327   6.7870   6.7870   7.1341
    15.5861  16.8468  16.8468  17.4055  18.8489  19.2206

          k = 0.3942-0.3942 0.1971 (  8499 PWs)   bands (ev):

   -64.9724 -64.9708 -64.9708 -64.9701 -31.7880 -31.7861 -31.7861 -31.7797
   -31.7517 -31.7462 -31.7462 -31.7389 -31.7383 -31.7373 -31.7373 -31.7323
    -8.5281  -8.2619  -8.2619  -8.1376   3.6806   3.7631   3.7631   4.0779
     5.7528   6.1473   6.1473   6.6844   6.7696   6.8070   6.8070   7.0945
    15.3103  16.2864  16.2864  16.6884  19.2080  19.3843

          k = 0.3942-0.3942 0.3942 (  8465 PWs)   bands (ev):

   -64.9717 -64.9708 -64.9708 -64.9708 -31.7953 -31.7952 -31.7952 -31.7918
   -31.7388 -31.7387 -31.7387 -31.7365 -31.7365 -31.7364 -31.7342 -31.7342
    -8.3730  -8.2220  -8.2220  -8.2220   3.2967   3.2967   3.2968   3.4632
     6.6203   6.6203   6.6203   6.8678   6.8678   6.8678   6.9919   6.9919
    15.1160  15.6369  15.6369  15.6369  19.5469  19.5503

          k = 0.3942-0.3942-0.3942 (  8465 PWs)   bands (ev):

   -64.9717 -64.9708 -64.9708 -64.9708 -31.7953 -31.7952 -31.7952 -31.7918
   -31.7388 -31.7387 -31.7387 -31.7365 -31.7364 -31.7364 -31.7342 -31.7342
    -8.3730  -8.2220  -8.2220  -8.2220   3.2967   3.2967   3.2968   3.4632
     6.6203   6.6203   6.6203   6.8678   6.8678   6.8678   6.9919   6.9919
    15.1160  15.6369  15.6369  15.6369  19.5469  19.5503

          k = 0.3942-0.3942-0.1971 (  8499 PWs)   bands (ev):

   -64.9724 -64.9708 -64.9708 -64.9701 -31.7880 -31.7861 -31.7861 -31.7797
   -31.7517 -31.7462 -31.7462 -31.7389 -31.7383 -31.7373 -31.7373 -31.7323
    -8.5281  -8.2619  -8.2619  -8.1376   3.6806   3.7631   3.7631   4.0779
     5.7528   6.1473   6.1473   6.6844   6.7696   6.8070   6.8070   7.0945
    15.3103  16.2864  16.2864  16.6884  19.2080  19.2080

          k = 0.3942-0.1971-0.0000 (  8538 PWs)   bands (ev):

   -64.9742 -64.9716 -64.9693 -64.9690 -31.7778 -31.7725 -31.7723 -31.7710
   -31.7613 -31.7581 -31.7470 -31.7461 -31.7459 -31.7404 -31.7383 -31.7321
    -8.8579  -8.4523  -8.0574  -8.0085   4.2201   4.3927   4.5464   4.6629
     5.1964   5.2937   6.2332   6.3497   6.3631   6.6987   6.8142   7.1540
    14.6831  16.2447  17.9432  18.1974  18.2809  18.4968

          k = 0.3942-0.1971 0.1971 (  8510 PWs)   bands (ev):

   -64.9737 -64.9714 -64.9695 -64.9695 -31.7829 -31.7829 -31.7782 -31.7669
   -31.7575 -31.7575 -31.7436 -31.7436 -31.7431 -31.7408 -31.7348 -31.7332
    -8.7640  -8.3947  -8.0731  -8.0731   3.9673   3.9673   4.1456   4.7461
     5.4196   5.4196   6.3710   6.4779   6.4779   6.7171   7.0255   7.0362
    14.7982  16.1823  17.4025  17.4025  18.6589  19.0930

          k = 0.3942-0.1971 0.3942 (  8499 PWs)   bands (ev):

   -64.9724 -64.9708 -64.9708 -64.9701 -31.7880 -31.7861 -31.7861 -31.7797
   -31.7517 -31.7463 -31.7462 -31.7389 -31.7383 -31.7373 -31.7373 -31.7323
    -8.5281  -8.2619  -8.2619  -8.1376   3.6806   3.7631   3.7631   4.0779
     5.7528   6.1473   6.1473   6.6844   6.7696   6.8070   6.8070   7.0945
    15.3103  16.2864  16.2864  16.6884  19.2080  19.3849

          k = 0.3942-0.1971-0.3942 (  8499 PWs)   bands (ev):

   -64.9724 -64.9708 -64.9708 -64.9701 -31.7880 -31.7861 -31.7861 -31.7797
   -31.7517 -31.7463 -31.7462 -31.7389 -31.7383 -31.7373 -31.7373 -31.7323
    -8.5281  -8.2619  -8.2619  -8.1376   3.6806   3.7631   3.7631   4.0779
     5.7528   6.1473   6.1473   6.6845   6.7696   6.8070   6.8070   7.0945
    15.3103  16.2863  16.2864  16.6884  19.2080  19.2080

          k = 0.3942-0.1971-0.1971 (  8510 PWs)   bands (ev):

   -64.9737 -64.9714 -64.9695 -64.9695 -31.7829 -31.7829 -31.7782 -31.7669
   -31.7575 -31.7575 -31.7436 -31.7436 -31.7431 -31.7408 -31.7348 -31.7332
    -8.7640  -8.3947  -8.0731  -8.0731   3.9673   3.9673   4.1456   4.7461
     5.4196   5.4196   6.3710   6.4779   6.4779   6.7171   7.0255   7.0362
    14.7982  16.1823  17.4025  17.4025  18.6589  19.0930

     the Fermi energy is     9.0863 ev

!    total energy              =    -608.51296399 Ry
     estimated scf accuracy    <       0.00000099 Ry
     smearing contrib. (-TS)   =      -0.00000000 Ry
     internal energy E=F+TS    =    -608.51296399 Ry

     The total energy is F=E-TS. E is the sum of the following terms:
     one-electron contribution =    -305.83880187 Ry
     hartree contribution      =     168.87126779 Ry
     xc contribution           =     -97.80689504 Ry
     ewald contribution        =    -373.63568355 Ry
     DFT-D3 Dispersion         =      -0.10285132 Ry

     convergence has been achieved in   9 iterations

     Forces acting on atoms (cartesian axes, Ry/au):

     atom    1 type  1   force =    -0.00000012   -0.00000043   -0.00000007
     atom    2 type  1   force =    -0.00000001    0.00000019   -0.00000026
     atom    3 type  1   force =    -0.00000018    0.00000010    0.00000033
     atom    4 type  1   force =     0.00000014   -0.00000004    0.00000017
     atom    5 type  2   force =     0.00000048   -0.00000053   -0.00000106
     atom    6 type  2   force =    -0.00000029    0.00000015   -0.00000075
     atom    7 type  2   force =    -0.00000032    0.00000087    0.00000109
     atom    8 type  2   force =     0.00000030   -0.00000031    0.00000055

     Total force =     0.000002     Total SCF correction =     0.000011
     SCF correction compared to forces is large: reduce conv_thr to get better values


     Computing stress (Cartesian axis) and pressure

          total   stress  (Ry/bohr**3)                   (kbar)     P=      -50.66
  -0.00034437  -0.00000000  -0.00000000          -50.66       -0.00       -0.00
  -0.00000000  -0.00034437  -0.00000000           -0.00      -50.66       -0.00
  -0.00000000  -0.00000000  -0.00034437           -0.00       -0.00      -50.66


     number of scf cycles    =   2
     number of bfgs steps    =   1

     enthalpy old            =    -608.7732436104 Ry
     enthalpy new            =    -608.7814469514 Ry

     CASE: enthalpy_new < enthalpy_old

     new trust radius        =       0.0270608874 bohr
     new conv_thr            =       0.0000000100 Ry

     new unit-cell volume =    535.97253 a.u.^3 (    79.42294 Ang^3 )
     density =      3.37063 g/cm^3

CELL_PARAMETERS (angstrom)
   4.298484219  -0.000000058  -0.000000095
  -0.000000058   4.298484154  -0.000000476
  -0.000000095  -0.000000476   4.298483519

ATOMIC_POSITIONS (angstrom)
Mg            0.0000000151        0.0000000185       -0.0000001885
Mg           -0.0000000533        2.1492422604        2.1492413129
Mg            2.1492418545       -0.0000001863        2.1492418647
Mg            2.1492421493        2.1492414147        0.0000001204
O             2.1492422887        2.1492414396        2.1492403705
O             2.1492419338        0.0000004850       -0.0000005382
O            -0.0000003411        2.1492424954        0.0000006320
O             0.0000002853       -0.0000006874        2.1492423231


     NEW-OLD atomic charge density approx. for the potential
     extrapolated charge   65.11878, renormalised to   64.00000

     total cpu time spent up to now is      126.5 secs

     Self-consistent Calculation

     iteration #  1     ecut=   100.00 Ry     beta= 0.50
     Davidson diagonalization with overlap
     ethr =  1.00E-06,  avg # of iterations =  6.4

     total cpu time spent up to now is      137.6 secs

     total energy              =    -608.46428271 Ry
     estimated scf accuracy    <       0.02660786 Ry

     iteration #  2     ecut=   100.00 Ry     beta= 0.50
     Davidson diagonalization with overlap
     ethr =  4.16E-05,  avg # of iterations =  3.2

     total cpu time spent up to now is      145.0 secs

     total energy              =    -608.50958743 Ry
     estimated scf accuracy    <       0.04189884 Ry

     iteration #  3     ecut=   100.00 Ry     beta= 0.50
     Davidson diagonalization with overlap
     ethr =  4.16E-05,  avg # of iterations =  2.0

     total cpu time spent up to now is      149.6 secs

     total energy              =    -608.50965959 Ry
     estimated scf accuracy    <       0.00904264 Ry

     iteration #  4     ecut=   100.00 Ry     beta= 0.50
     Davidson diagonalization with overlap
     ethr =  1.41E-05,  avg # of iterations =  1.3

     total cpu time spent up to now is      153.6 secs

     total energy              =    -608.50831266 Ry
     estimated scf accuracy    <       0.00310654 Ry

     iteration #  5     ecut=   100.00 Ry     beta= 0.50
     Davidson diagonalization with overlap
     ethr =  4.85E-06,  avg # of iterations =  2.0

     total cpu time spent up to now is      159.5 secs

     total energy              =    -608.50885870 Ry
     estimated scf accuracy    <       0.00000897 Ry

     iteration #  6     ecut=   100.00 Ry     beta= 0.50
     Davidson diagonalization with overlap
     ethr =  1.40E-08,  avg # of iterations =  2.7

     total cpu time spent up to now is      164.9 secs

     total energy              =    -608.50886081 Ry
     estimated scf accuracy    <       0.00000411 Ry

     iteration #  7     ecut=   100.00 Ry     beta= 0.50
     Davidson diagonalization with overlap
     ethr =  6.42E-09,  avg # of iterations =  1.1

     total cpu time spent up to now is      169.4 secs

     total energy              =    -608.50885916 Ry
     estimated scf accuracy    <       0.00000463 Ry

     iteration #  8     ecut=   100.00 Ry     beta= 0.50
     Davidson diagonalization with overlap
     ethr =  6.42E-09,  avg # of iterations =  2.5

     total cpu time spent up to now is      174.2 secs

     total energy              =    -608.50885930 Ry
     estimated scf accuracy    <       0.00000070 Ry

     iteration #  9     ecut=   100.00 Ry     beta= 0.50
     Davidson diagonalization with overlap
     ethr =  1.10E-09,  avg # of iterations =  2.2

     total cpu time spent up to now is      178.5 secs

     total energy              =    -608.50885933 Ry
     estimated scf accuracy    <       0.00000017 Ry

     iteration # 10     ecut=   100.00 Ry     beta= 0.50
     Davidson diagonalization with overlap
     ethr =  2.64E-10,  avg # of iterations =  1.0

     total cpu time spent up to now is      182.7 secs

     total energy              =    -608.50885928 Ry
     estimated scf accuracy    <       0.00000012 Ry

     iteration # 11     ecut=   100.00 Ry     beta= 0.50
     Davidson diagonalization with overlap
     ethr =  1.80E-10,  avg # of iterations =  2.0

     total cpu time spent up to now is      187.5 secs

     End of self-consistent calculation

          k = 0.0000 0.0000 0.0000 (  8409 PWs)   bands (ev):

   -65.2465 -65.2381 -65.2381 -65.2381 -32.0520 -32.0520 -32.0520 -32.0179
   -32.0179 -32.0179 -32.0179 -32.0179 -32.0179 -31.9954 -31.9954 -31.9954
    -9.5671  -8.1947  -8.1946  -8.1946   3.5279   3.5279   3.5279   6.0760
     6.0760   6.0760   6.0760   6.0760   6.0760   7.3285   7.3285   7.3285
    11.5219  16.4646  16.4646  16.6909  16.6909  16.6909

[...]
   -32.0121 -32.0070 -32.0070 -32.0001 -31.9996 -31.9987 -31.9987 -31.9940
    -8.6777  -8.4208  -8.4208  -8.3011   3.5439   3.6224   3.6224   3.9276
     5.5878   5.9762   5.9762   6.5039   6.5893   6.6257   6.6257   6.9087
    14.9697  15.9547  15.9547  16.3678  18.8592  19.0173

          k = 0.1960 0.3919-0.3919 (  9068 PWs)   bands (ev):

   -65.2354 -65.2340 -65.2340 -65.2333 -32.0457 -32.0440 -32.0440 -32.0380
   -32.0121 -32.0070 -32.0070 -32.0001 -31.9996 -31.9987 -31.9987 -31.9940
    -8.6778  -8.4208  -8.4208  -8.3011   3.5439   3.6224   3.6224   3.9276
     5.5878   5.9762   5.9762   6.5039   6.5893   6.6257   6.6257   6.9087
    14.9697  15.9547  15.9547  16.3678  18.8592  19.0173

          k = 0.1960 0.3919-0.1960 (  9046 PWs)   bands (ev):

   -65.2366 -65.2345 -65.2328 -65.2328 -32.0410 -32.0410 -32.0367 -32.0261
   -32.0174 -32.0174 -32.0045 -32.0045 -32.0040 -32.0019 -31.9963 -31.9948
    -8.9052  -8.5483  -8.2382  -8.2382   3.8271   3.8271   3.9959   4.5815
     5.2598   5.2598   6.1960   6.3007   6.3007   6.5349   6.8393   6.8486
    14.4442  15.8302  17.0817  17.0817  18.7306  18.7307

          k = 0.1960-0.3919-0.0000 (  9029 PWs)   bands (ev):

   -65.2370 -65.2347 -65.2326 -65.2323 -32.0363 -32.0314 -32.0313 -32.0300
   -32.0210 -32.0179 -32.0076 -32.0068 -32.0067 -32.0015 -31.9995 -31.9938
    -8.9958  -8.6035  -8.2226  -8.1755   4.0759   4.2380   4.4007   4.5124
     5.0231   5.1361   6.0590   6.1742   6.1864   6.5168   6.6295   6.9647
    14.3209  15.8727  17.6355  17.8305  18.0200  18.2016

          k = 0.1960-0.3919 0.1960 (  9046 PWs)   bands (ev):

   -65.2366 -65.2345 -65.2328 -65.2328 -32.0410 -32.0410 -32.0367 -32.0261
   -32.0174 -32.0174 -32.0045 -32.0045 -32.0040 -32.0019 -31.9963 -31.9948
    -8.9052  -8.5483  -8.2382  -8.2382   3.8271   3.8271   3.9959   4.5815
     5.2598   5.2598   6.1960   6.3007   6.3007   6.5349   6.8393   6.8486
    14.4442  15.8302  17.0817  17.0817  18.7306  18.7307

          k = 0.1960-0.3919 0.3919 (  9068 PWs)   bands (ev):

   -65.2354 -65.2340 -65.2340 -65.2333 -32.0457 -32.0440 -32.0440 -32.0380
   -32.0121 -32.0070 -32.0070 -32.0001 -31.9996 -31.9987 -31.9987 -31.9940
    -8.6778  -8.4208  -8.4208  -8.3011   3.5439   3.6224   3.6224   3.9276
     5.5878   5.9762   5.9762   6.5039   6.5893   6.6257   6.6257   6.9087
    14.9697  15.9547  15.9547  16.3678  18.8592  19.0173

          k = 0.1960-0.3919-0.3919 (  9068 PWs)   bands (ev):

   -65.2354 -65.2340 -65.2340 -65.2333 -32.0457 -32.0440 -32.0440 -32.0380
   -32.0121 -32.0070 -32.0070 -32.0001 -31.9996 -31.9987 -31.9987 -31.9940
    -8.6777  -8.4208  -8.4208  -8.3011   3.5439   3.6224   3.6224   3.9276
     5.5878   5.9762   5.9762   6.5039   6.5893   6.6257   6.6257   6.9087
    14.9697  15.9547  15.9547  16.3678  18.8592  19.0173

          k = 0.1960-0.3919-0.1960 (  9046 PWs)   bands (ev):

   -65.2366 -65.2345 -65.2328 -65.2328 -32.0410 -32.0410 -32.0367 -32.0261
   -32.0174 -32.0174 -32.0045 -32.0045 -32.0040 -32.0019 -31.9963 -31.9948
    -8.9052  -8.5483  -8.2382  -8.2382   3.8271   3.8271   3.9959   4.5815
     5.2598   5.2598   6.1960   6.3007   6.3007   6.5349   6.8393   6.8486
    14.4442  15.8302  17.0817  17.0817  18.7307  18.7307

          k = 0.1960-0.1960-0.0000 (  9040 PWs)   bands (ev):

   -65.2390 -65.2328 -65.2328 -65.2321 -32.0400 -32.0400 -32.0396 -32.0218
   -32.0128 -32.0128 -32.0091 -32.0091 -32.0082 -32.0038 -31.9937 -31.9900
    -9.3142  -8.2906  -8.2906  -8.1683   3.8231   3.8231   3.8922   5.1553
     5.8606   5.8606   6.0114   6.1092   6.1092   6.2127   7.0287   7.2338
    12.9515  16.9977  17.0049  17.0049  17.2423  17.2423

          k = 0.1960-0.1960 0.1960 (  9051 PWs)   bands (ev):

   -65.2383 -65.2328 -65.2328 -65.2328 -32.0403 -32.0403 -32.0403 -32.0155
   -32.0155 -32.0155 -32.0123 -32.0065 -32.0065 -32.0065 -31.9917 -31.9917
    -9.2005  -8.2707  -8.2707  -8.2707   3.8360   3.8360   3.8360   5.4455
     5.5051   5.5051   5.5051   6.2990   6.2990   6.2990   7.1233   7.1233
    13.3554  16.8411  16.8411  16.8411  17.9731  17.9731

          k = 0.1960-0.1960 0.3919 (  9046 PWs)   bands (ev):

   -65.2366 -65.2345 -65.2328 -65.2328 -32.0410 -32.0410 -32.0367 -32.0261
   -32.0174 -32.0174 -32.0045 -32.0045 -32.0040 -32.0019 -31.9963 -31.9948
    -8.9052  -8.5483  -8.2382  -8.2382   3.8271   3.8271   3.9959   4.5815
     5.2598   5.2598   6.1960   6.3007   6.3007   6.5349   6.8393   6.8486
    14.4442  15.8302  17.0817  17.0817  18.7307  18.7307

          k = 0.1960-0.1960-0.3919 (  9046 PWs)   bands (ev):

   -65.2366 -65.2345 -65.2328 -65.2328 -32.0410 -32.0410 -32.0367 -32.0261
   -32.0174 -32.0174 -32.0045 -32.0045 -32.0040 -32.0019 -31.9963 -31.9948
    -8.9052  -8.5483  -8.2382  -8.2382   3.8271   3.8271   3.9959   4.5815
     5.2598   5.2598   6.1960   6.3007   6.3007   6.5349   6.8393   6.8486
    14.4442  15.8302  17.0817  17.0817  18.7306  18.7307

          k = 0.1960-0.1960-0.1960 (  9051 PWs)   bands (ev):

   -65.2383 -65.2328 -65.2328 -65.2328 -32.0403 -32.0403 -32.0403 -32.0155
   -32.0155 -32.0155 -32.0123 -32.0065 -32.0065 -32.0065 -31.9917 -31.9917
    -9.2005  -8.2707  -8.2707  -8.2707   3.8360   3.8360   3.8360   5.4455
     5.5051   5.5051   5.5051   6.2990   6.2990   6.2990   7.1233   7.1233
    13.3554  16.8411  16.8411  16.8411  17.9731  17.9731

          k = 0.3919 0.0000 0.0000 (  9042 PWs)   bands (ev):

   -65.2376 -65.2350 -65.2321 -65.2321 -32.0342 -32.0342 -32.0279 -32.0236
   -32.0236 -32.0131 -32.0131 -32.0104 -32.0040 -32.0040 -31.9970 -31.9970
    -9.0955  -8.6699  -8.1438  -8.1438   4.2341   4.2341   4.3649   4.9908
     4.9908   5.4015   5.7210   5.7210   6.4664   6.4664   6.8499   6.8499
    13.9842  15.5867  17.7325  18.0689  18.0689  19.0457

          k = 0.3919 0.0000 0.1960 (  9029 PWs)   bands (ev):

   -65.2370 -65.2347 -65.2326 -65.2323 -32.0363 -32.0314 -32.0313 -32.0300
   -32.0210 -32.0179 -32.0076 -32.0068 -32.0067 -32.0015 -31.9995 -31.9938
    -8.9958  -8.6035  -8.2226  -8.1755   4.0759   4.2380   4.4007   4.5124
     5.0231   5.1361   6.0590   6.1742   6.1864   6.5168   6.6295   6.9647
    14.3209  15.8727  17.6355  17.8305  18.0198  18.2016

          k = 0.3919 0.0000 0.3919 (  9048 PWs)   bands (ev):

   -65.2357 -65.2340 -65.2340 -65.2331 -32.0360 -32.0360 -32.0360 -32.0291
   -32.0237 -32.0144 -32.0144 -32.0062 -32.0003 -31.9988 -31.9988 -31.9933
    -8.7411  -8.4438  -8.4438  -8.2788   4.0359   4.0359   4.0800   4.3992
     4.8715   5.5419   5.5419   6.1061   6.5528   6.6060   6.6060   6.9475
    15.2255  16.4866  16.4866  17.0720  18.5496  18.8938

          k = 0.3919-0.0000-0.3919 (  9048 PWs)   bands (ev):

   -65.2357 -65.2340 -65.2340 -65.2331 -32.0360 -32.0360 -32.0360 -32.0291
   -32.0237 -32.0144 -32.0144 -32.0062 -32.0003 -31.9988 -31.9988 -31.9933
    -8.7411  -8.4438  -8.4438  -8.2788   4.0359   4.0359   4.0800   4.3992
     4.8715   5.5419   5.5419   6.1061   6.5528   6.6060   6.6060   6.9475
    15.2255  16.4866  16.4866  17.0720  18.5496  18.8939

          k = 0.3919-0.0000-0.1960 (  9029 PWs)   bands (ev):

   -65.2370 -65.2347 -65.2326 -65.2323 -32.0363 -32.0314 -32.0313 -32.0300
   -32.0210 -32.0179 -32.0076 -32.0068 -32.0067 -32.0015 -31.9995 -31.9938
    -8.9958  -8.6035  -8.2226  -8.1755   4.0759   4.2380   4.4007   4.5124
     5.0231   5.1361   6.0590   6.1742   6.1864   6.5168   6.6295   6.9647
    14.3209  15.8727  17.6355  17.8305  18.2016  18.8947

          k = 0.3919 0.1960 0.0000 (  9029 PWs)   bands (ev):

   -65.2370 -65.2347 -65.2326 -65.2323 -32.0363 -32.0314 -32.0313 -32.0300
   -32.0210 -32.0179 -32.0076 -32.0068 -32.0067 -32.0015 -31.9995 -31.9938
    -8.9958  -8.6035  -8.2226  -8.1755   4.0759   4.2380   4.4007   4.5124
     5.0231   5.1361   6.0590   6.1742   6.1864   6.5168   6.6295   6.9647
    14.3209  15.8727  17.6355  17.8305  18.0198  18.2016

          k = 0.3919 0.1960 0.1960 (  9046 PWs)   bands (ev):

   -65.2366 -65.2345 -65.2328 -65.2328 -32.0410 -32.0410 -32.0367 -32.0261
   -32.0174 -32.0174 -32.0045 -32.0045 -32.0040 -32.0019 -31.9963 -31.9948
    -8.9052  -8.5483  -8.2382  -8.2382   3.8271   3.8271   3.9959   4.5815
     5.2598   5.2598   6.1960   6.3007   6.3007   6.5349   6.8393   6.8486
    14.4442  15.8302  17.0817  17.0817  18.7307  18.7307

          k = 0.3919 0.1960 0.3919 (  9068 PWs)   bands (ev):

   -65.2354 -65.2340 -65.2340 -65.2333 -32.0457 -32.0440 -32.0440 -32.0380
   -32.0121 -32.0070 -32.0070 -32.0001 -31.9996 -31.9987 -31.9987 -31.9940
    -8.6777  -8.4208  -8.4208  -8.3011   3.5439   3.6224   3.6224   3.9276
     5.5878   5.9762   5.9762   6.5039   6.5893   6.6257   6.6257   6.9087
    14.9697  15.9547  15.9547  16.3678  18.8592  19.0173

          k = 0.3919 0.1960-0.3919 (  9068 PWs)   bands (ev):

   -65.2354 -65.2340 -65.2340 -65.2333 -32.0457 -32.0440 -32.0440 -32.0380
   -32.0121 -32.0070 -32.0070 -32.0001 -31.9996 -31.9987 -31.9987 -31.9940
    -8.6778  -8.4208  -8.4208  -8.3011   3.5439   3.6224   3.6224   3.9276
     5.5878   5.9762   5.9762   6.5039   6.5893   6.6257   6.6257   6.9087
    14.9697  15.9547  15.9547  16.3678  18.8592  19.0173

          k = 0.3919 0.1960-0.1960 (  9046 PWs)   bands (ev):

   -65.2366 -65.2345 -65.2328 -65.2328 -32.0410 -32.0410 -32.0367 -32.0261
   -32.0174 -32.0174 -32.0045 -32.0045 -32.0040 -32.0019 -31.9963 -31.9948
    -8.9052  -8.5483  -8.2382  -8.2382   3.8271   3.8271   3.9959   4.5815
     5.2598   5.2598   6.1960   6.3007   6.3007   6.5349   6.8393   6.8486
    14.4442  15.8303  17.0817  17.0817  18.7306  18.7307

          k = 0.3919 0.3919 0.0000 (  9048 PWs)   bands (ev):

   -65.2357 -65.2340 -65.2340 -65.2331 -32.0360 -32.0360 -32.0360 -32.0291
   -32.0237 -32.0144 -32.0144 -32.0062 -32.0003 -31.9988 -31.9988 -31.9933
    -8.7411  -8.4438  -8.4438  -8.2788   4.0359   4.0359   4.0800   4.3992
     4.8715   5.5419   5.5419   6.1061   6.5528   6.6060   6.6060   6.9475
    15.2255  16.4866  16.4866  17.0720  18.5496  18.8937

          k = 0.3919 0.3919 0.1960 (  9068 PWs)   bands (ev):

   -65.2354 -65.2340 -65.2340 -65.2333 -32.0457 -32.0440 -32.0440 -32.0380
   -32.0121 -32.0070 -32.0070 -32.0001 -31.9996 -31.9987 -31.9987 -31.9940
    -8.6777  -8.4208  -8.4208  -8.3011   3.5439   3.6224   3.6224   3.9276
     5.5878   5.9762   5.9762   6.5039   6.5893   6.6257   6.6257   6.9087
    14.9697  15.9547  15.9547  16.3678  18.8592  19.0173

          k = 0.3919 0.3919 0.3919 (  9075 PWs)   bands (ev):

   -65.2348 -65.2340 -65.2340 -65.2340 -32.0525 -32.0525 -32.0525 -32.0492
   -32.0000 -32.0000 -32.0000 -31.9978 -31.9978 -31.9978 -31.9957 -31.9957
    -8.5287  -8.3832  -8.3832  -8.3832   3.1652   3.1652   3.1652   3.3262
     6.4427   6.4427   6.4427   6.6862   6.6862   6.6862   6.8082   6.8082
    14.7979  15.3242  15.3242  15.3242  19.1655  19.1655

          k = 0.3919 0.3919-0.3919 (  9075 PWs)   bands (ev):

   -65.2348 -65.2340 -65.2340 -65.2340 -32.0525 -32.0525 -32.0525 -32.0492
   -32.0000 -32.0000 -32.0000 -31.9978 -31.9978 -31.9978 -31.9957 -31.9957
    -8.5287  -8.3832  -8.3832  -8.3832   3.1652   3.1652   3.1652   3.3262
     6.4427   6.4427   6.4427   6.6862   6.6862   6.6862   6.8082   6.8082
    14.7979  15.3242  15.3242  15.3242  19.1655  19.1655

          k = 0.3919 0.3919-0.1960 (  9068 PWs)   bands (ev):

   -65.2354 -65.2340 -65.2340 -65.2333 -32.0457 -32.0440 -32.0440 -32.0380
   -32.0121 -32.0070 -32.0070 -32.0001 -31.9996 -31.9987 -31.9987 -31.9940
    -8.6778  -8.4208  -8.4208  -8.3011   3.5439   3.6224   3.6224   3.9276
     5.5878   5.9762   5.9762   6.5039   6.5893   6.6257   6.6257   6.9087
    14.9697  15.9547  15.9547  16.3678  18.8592  19.0172

          k = 0.3919-0.3919-0.0000 (  9048 PWs)   bands (ev):

   -65.2357 -65.2340 -65.2340 -65.2331 -32.0360 -32.0360 -32.0360 -32.0291
   -32.0237 -32.0144 -32.0144 -32.0062 -32.0003 -31.9988 -31.9988 -31.9933
    -8.7411  -8.4438  -8.4438  -8.2788   4.0359   4.0359   4.0800   4.3992
     4.8715   5.5419   5.5419   6.1061   6.5528   6.6060   6.6060   6.9475
    15.2255  16.4866  16.4866  17.0720  18.5496  18.5498

          k = 0.3919-0.3919 0.1960 (  9068 PWs)   bands (ev):

   -65.2354 -65.2340 -65.2340 -65.2333 -32.0457 -32.0440 -32.0440 -32.0380
   -32.0121 -32.0070 -32.0070 -32.0001 -31.9996 -31.9987 -31.9987 -31.9940
    -8.6778  -8.4208  -8.4208  -8.3011   3.5439   3.6224   3.6224   3.9276
     5.5878   5.9762   5.9762   6.5039   6.5893   6.6257   6.6257   6.9087
    14.9697  15.9547  15.9547  16.3678  18.8592  19.0173

          k = 0.3919-0.3919 0.3919 (  9075 PWs)   bands (ev):

   -65.2348 -65.2340 -65.2340 -65.2340 -32.0525 -32.0525 -32.0525 -32.0492
   -32.0000 -32.0000 -32.0000 -31.9978 -31.9978 -31.9978 -31.9957 -31.9957
    -8.5287  -8.3832  -8.3832  -8.3832   3.1652   3.1652   3.1652   3.3262
     6.4427   6.4427   6.4427   6.6862   6.6862   6.6862   6.8082   6.8082
    14.7979  15.3242  15.3242  15.3242  19.1655  19.1655

          k = 0.3919-0.3919-0.3919 (  9075 PWs)   bands (ev):

   -65.2348 -65.2340 -65.2340 -65.2340 -32.0525 -32.0525 -32.0525 -32.0492
   -32.0000 -32.0000 -32.0000 -31.9978 -31.9978 -31.9978 -31.9957 -31.9957
    -8.5287  -8.3832  -8.3832  -8.3832   3.1652   3.1652   3.1652   3.3262
     6.4427   6.4427   6.4427   6.6862   6.6862   6.6862   6.8082   6.8082
    14.7979  15.3242  15.3242  15.3242  19.1655  19.1655

          k = 0.3919-0.3919-0.1960 (  9068 PWs)   bands (ev):

   -65.2354 -65.2340 -65.2340 -65.2333 -32.0457 -32.0440 -32.0440 -32.0380
   -32.0121 -32.0070 -32.0070 -32.0001 -31.9996 -31.9987 -31.9987 -31.9940
    -8.6777  -8.4208  -8.4208  -8.3011   3.5439   3.6224   3.6224   3.9276
     5.5878   5.9762   5.9762   6.5039   6.5893   6.6257   6.6257   6.9087
    14.9697  15.9547  15.9547  16.3678  18.8592  19.0173

          k = 0.3919-0.1960-0.0000 (  9029 PWs)   bands (ev):

   -65.2370 -65.2347 -65.2326 -65.2323 -32.0363 -32.0314 -32.0313 -32.0300
   -32.0210 -32.0179 -32.0076 -32.0068 -32.0067 -32.0015 -31.9995 -31.9938
    -8.9958  -8.6035  -8.2226  -8.1755   4.0759   4.2380   4.4007   4.5124
     5.0231   5.1361   6.0590   6.1742   6.1864   6.5168   6.6295   6.9647
    14.3209  15.8727  17.6355  17.8305  18.0200  18.2016

          k = 0.3919-0.1960 0.1960 (  9046 PWs)   bands (ev):

   -65.2366 -65.2345 -65.2328 -65.2328 -32.0410 -32.0410 -32.0367 -32.0261
   -32.0174 -32.0174 -32.0045 -32.0045 -32.0040 -32.0019 -31.9963 -31.9948
    -8.9052  -8.5483  -8.2382  -8.2382   3.8271   3.8271   3.9959   4.5815
     5.2598   5.2598   6.1960   6.3007   6.3007   6.5349   6.8393   6.8486
    14.4442  15.8303  17.0817  17.0817  18.7306  18.7307

          k = 0.3919-0.1960 0.3919 (  9068 PWs)   bands (ev):

   -65.2354 -65.2340 -65.2340 -65.2333 -32.0457 -32.0440 -32.0440 -32.0380
   -32.0121 -32.0070 -32.0070 -32.0001 -31.9996 -31.9987 -31.9987 -31.9940
    -8.6778  -8.4208  -8.4208  -8.3011   3.5439   3.6224   3.6224   3.9276
     5.5878   5.9762   5.9762   6.5039   6.5893   6.6257   6.6257   6.9087
    14.9697  15.9547  15.9547  16.3678  18.8592  19.0173

          k = 0.3919-0.1960-0.3919 (  9068 PWs)   bands (ev):

   -65.2354 -65.2340 -65.2340 -65.2333 -32.0457 -32.0440 -32.0440 -32.0380
   -32.0121 -32.0070 -32.0070 -32.0001 -31.9996 -31.9987 -31.9987 -31.9940
    -8.6777  -8.4208  -8.4208  -8.3011   3.5439   3.6224   3.6224   3.9276
     5.5878   5.9762   5.9762   6.5039   6.5893   6.6257   6.6257   6.9087
    14.9697  15.9547  15.9547  16.3678  18.8592  19.0173

          k = 0.3919-0.1960-0.1960 (  9046 PWs)   bands (ev):

   -65.2366 -65.2345 -65.2328 -65.2328 -32.0410 -32.0410 -32.0367 -32.0261
   -32.0174 -32.0174 -32.0045 -32.0045 -32.0040 -32.0019 -31.9963 -31.9948
    -8.9052  -8.5483  -8.2382  -8.2382   3.8271   3.8271   3.9959   4.5815
     5.2598   5.2598   6.1960   6.3007   6.3007   6.5349   6.8393   6.8486
    14.4442  15.8302  17.0817  17.0817  18.7306  18.7307

     the Fermi energy is     8.7168 ev

!    total energy              =    -608.50900546 Ry
     estimated scf accuracy    <          7.2E-10 Ry
     smearing contrib. (-TS)   =      -0.00000000 Ry
     internal energy E=F+TS    =    -608.50900546 Ry

     The total energy is F=E-TS. E is the sum of the following terms:
     one-electron contribution =    -309.15266628 Ry
     hartree contribution      =     169.97438387 Ry
     xc contribution           =     -97.73536855 Ry
     ewald contribution        =    -371.49446711 Ry
     DFT-D3 Dispersion         =      -0.10088738 Ry

     convergence has been achieved in  10 iterations

     Forces acting on atoms (cartesian axes, Ry/au):

     atom    1 type  1   force =    -0.00000004    0.00000004    0.00000006
     atom    2 type  1   force =     0.00000001   -0.00000010    0.00000008
     atom    3 type  1   force =     0.00000012   -0.00000008   -0.00000008
     atom    4 type  1   force =    -0.00000007    0.00000017   -0.00000010
     atom    5 type  2   force =    -0.00000008    0.00000012    0.00000034
     atom    6 type  2   force =     0.00000004   -0.00000017    0.00000011
     atom    7 type  2   force =     0.00000009   -0.00000014   -0.00000027
     atom    8 type  2   force =    -0.00000009    0.00000015   -0.00000013

     Total force =     0.000001     Total SCF correction =     0.000000
     SCF correction compared to forces is large: reduce conv_thr to get better values


     Computing stress (Cartesian axis) and pressure

          total   stress  (Ry/bohr**3)                   (kbar)     P=      -75.11
  -0.00051062   0.00000000   0.00000000          -75.11        0.00        0.00
   0.00000000  -0.00051062   0.00000000            0.00      -75.11        0.00
   0.00000000   0.00000000  -0.00051062            0.00        0.00      -75.11

 
     init_run     :      4.12s CPU      4.31s WALL (       2 calls)
     electrons    :    244.01s CPU    254.77s WALL (       5 calls)
     update_pot   :      1.56s CPU      1.59s WALL (       3 calls)
     forces       :     22.28s CPU     22.53s WALL (       5 calls)
     stress       :     25.11s CPU     25.30s WALL (       5 calls)

     Called by init_run:
     wfcinit      :      3.23s CPU      3.39s WALL (       2 calls)
     potinit      :      0.34s CPU      0.35s WALL (       2 calls)
     hinit0       :      0.49s CPU      0.51s WALL (       2 calls)

     Called by electrons:
     c_bands      :    197.13s CPU    206.00s WALL (      44 calls)
     sum_band     :     30.64s CPU     32.34s WALL (      44 calls)
     v_of_rho     :      0.48s CPU      0.55s WALL (      48 calls)
     mix_rho      :      0.07s CPU      0.11s WALL (      44 calls)

     Called by c_bands:
     init_us_2    :      2.32s CPU      2.74s WALL (    6300 calls)
     cegterg      :    190.40s CPU    198.36s WALL (    2772 calls)

     Called by *egterg:
     cdiaghg      :     19.10s CPU     19.49s WALL (   10270 calls)
     h_psi        :    156.77s CPU    164.03s WALL (   10648 calls)
     g_psi        :      0.47s CPU      0.49s WALL (    7750 calls)

     Called by h_psi:
     h_psi:calbec :      5.61s CPU      5.92s WALL (   10648 calls)
     vloc_psi     :    146.05s CPU    152.85s WALL (   10648 calls)
     add_vuspsi   :      4.40s CPU      4.52s WALL (   10648 calls)

     General routines
     calbec       :      8.40s CPU      8.75s WALL (   12223 calls)
     fft          :      2.13s CPU      2.18s WALL (     604 calls)
     ffts         :      0.02s CPU      0.03s WALL (      44 calls)
     fftw         :    165.39s CPU    173.08s WALL (  657184 calls)
 
     Parallel routines
     fft_scatt_xy :     18.56s CPU     19.39s WALL (  657832 calls)
     fft_scatt_yz :    100.91s CPU    105.85s WALL (  657832 calls)
 
     PWSCF        :   4m57.33s CPU   5m 8.81s WALL

 
   This run was terminated on:  13:39:28   4Feb2024            

=------------------------------------------------------------------------------=
   JOB DONE.
=------------------------------------------------------------------------------=
