# total energy = -24713.5380578 eV

CRYSTAL
PRIMVEC
		9.53869699		0.00000000		-0.76309385
		0.00000000		8.66010320		0.00000000
		-2.08588872		0.00000000		5.11916403
PRIMECORD
   40 1
Mg		-0.52147218		7.83046244		1.27979101		 0.00000237		 0.00092883		-0.00000314
Mg		-1.56441559		0.82963693		3.83937302		-0.00000237		-0.00092883		 0.00000314
Mg		4.24787823		3.50041276		0.89824313		 0.00000427		 0.00092323		-0.00000538
Mg		3.20493386		5.15968662		3.45782514		-0.00000427		-0.00092323		 0.00000538
Mg		-0.52147218		2.47332452		1.27979101		-0.00000232		-0.00074169		-0.00001345
Mg		-1.56441559		6.18677486		3.83937302		 0.00000232		 0.00074169		 0.00001345
Mg		4.24787823		6.80337516		0.89824313		-0.00000108		-0.00073626		-0.00001085
Mg		3.20493386		1.85672517		3.45782514		 0.00000108		 0.00073626		 0.00001085
Si		2.27499189		0.79655629		1.03477899		-0.00055244		-0.00067926		-0.00012381
Si		5.17782116		7.86354404		3.32128833		 0.00055244		 0.00067926		 0.00012381
Si		6.22076361		0.79655629		0.76170727		 0.00041978		-0.00056868		 0.00007103
Si		1.23204752		7.86354404		3.59436100		-0.00041978		 0.00056868		-0.00007103
Si		7.04434134		5.12660598		0.65323111		-0.00047949		-0.00064680		-0.00009962
Si		0.40847075		3.53349339		3.70283621		 0.00047949		 0.00064680		 0.00009962
Si		1.45141416		5.12660598		1.14325515		 0.00028374		-0.00049688		 0.00002185
Si		6.00139793		3.53349339		3.21281312		-0.00028374		 0.00049688		-0.00002185
O		0.79002055		0.71705559		0.62021458		-0.00010856		 0.00018307		-0.00024837
O		6.66279154		7.94304283		3.73585273		 0.00010856		-0.00018307		 0.00024837
O		7.70573591		0.71705559		1.17627072		 0.00020039		 0.00017754		 0.00029046
O		-0.25292286		7.94304283		3.17979564		-0.00020039		-0.00017754		-0.00029046
O		5.55937000		5.04710719		0.23866670		-0.00014626		 0.00018355		-0.00026826
O		1.89344209		3.61299410		4.11740061		 0.00014626		-0.00018355		 0.00026826
O		2.93638550		5.04710719		1.55781860		 0.00027924		 0.00017779		 0.00032718
O		4.51642659		3.61299410		2.79824776		-0.00027924		-0.00017779		-0.00032718
O		2.80516819		2.23170764		1.34991966		 0.00020649		-0.00016270		-0.00074287
O		4.64764486		6.42839269		3.00614670		-0.00020649		 0.00016270		 0.00074287
O		5.69058826		2.23170764		0.44656468		-0.00015418		-0.00026494		 0.00075599
O		1.76222383		6.42839269		3.90950168		 0.00015418		 0.00026494		-0.00075599
O		7.57451764		6.56175637		0.96837178		 0.00017875		-0.00019539		-0.00074506
O		-0.12170459		2.09834205		3.38769458		-0.00017875		 0.00019539		 0.00074506
O		0.92123881		6.56175637		0.82811256		-0.00010581		-0.00033804		 0.00076151
O		6.53157423		2.09834205		3.52795380		 0.00010581		 0.00033804		-0.00076151
O		3.32574470		0.05629067		-0.13828989		 0.00009012		-0.00021524		-0.00030156
O		4.12706644		8.60380870		4.49435816		-0.00009012		 0.00021524		 0.00030156
O		5.17001080		0.05629067		1.93477614		-0.00009466		-0.00022713		 0.00030769
O		2.28280225		8.60380870		2.42129117		 0.00009466		 0.00022713		-0.00030769
O		8.09509606		4.38634131		-0.51983872		 0.00008447		-0.00021544		-0.00030167
O		-0.64228301		4.27375902		4.87590604		-0.00008447		 0.00021544		 0.00030167
O		0.40066135		4.38634131		2.31632402		-0.00008963		-0.00022715		 0.00030656
O		7.05215170		4.27375902		2.03974329		 0.00008963		 0.00022715		-0.00030656
