# total energy = -24715.3337836 eV

CRYSTAL
PRIMVEC
		9.53870007		0.00000000		-0.38154762
		0.00000000		8.66010381		0.00000000
		-1.88651662		0.00000000		5.05167790
PRIMECORD
   40 1
Mg		-0.47162963		7.83046303		1.26291900		 0.00000175		 0.00066345		-0.00000243
Mg		-1.41488985		0.82963696		3.78875795		-0.00000175		-0.00066345		 0.00000243
Mg		4.29771945		3.50041303		1.07214519		 0.00000165		 0.00063426		-0.00000235
Mg		3.35446018		5.15968696		3.59798414		-0.00000165		-0.00063426		 0.00000235
Mg		-0.47162963		2.47332460		1.26291900		-0.00000195		-0.00061873		-0.00000729
Mg		-1.41488985		6.18677443		3.78875795		 0.00000195		 0.00061873		 0.00000729
Mg		4.29771945		6.80337460		1.07214519		-0.00000202		-0.00055750		-0.00000736
Mg		3.35446018		1.85672539		3.59798414		 0.00000202		 0.00055750		 0.00000736
Si		2.32397612		0.79655607		1.12969713		-0.00033915		-0.00043829		 0.00031164
Si		5.32820351		7.86354392		3.54043219		 0.00033915		 0.00043829		-0.00031164
Si		6.27146372		0.79655607		1.01459324		 0.00025727		-0.00035356		-0.00035930
Si		1.38071686		7.86354392		3.65553608		-0.00025727		 0.00035356		 0.00035930
Si		7.09332711		5.12660607		0.93892332		-0.00053871		-0.00018071		 0.00027693
Si		0.55885443		3.53349392		3.73120600		 0.00053871		 0.00018071		-0.00027693
Si		1.50211369		5.12660607		1.20536705		 0.00045876		-0.00009742		-0.00032355
Si		6.15006690		3.53349392		3.46476227		-0.00045876		 0.00009742		 0.00032355
O		0.81753317		0.71705617		0.65401699		-0.00042991		 0.00020901		 0.00007427
O		6.83464646		7.94304287		4.01611328		 0.00042991		-0.00020901		-0.00007427
O		7.77790667		0.71705617		1.49027434		 0.00048665		 0.00020452		-0.00004768
O		-0.12572704		7.94304287		3.17985499		-0.00048665		-0.00020452		 0.00004768
O		5.58688321		5.04710712		0.46324318		-0.00022280		 0.00019272		 0.00015402
O		2.06529738		3.61299383		4.20688709		 0.00022280		-0.00019272		-0.00015402
O		3.00855664		5.04710712		1.68104815		 0.00027822		 0.00018816		-0.00012797
O		4.64362299		3.61299383		2.98908118		-0.00027822		-0.00018816		 0.00012797
O		2.86854734		2.23170800		1.46719704		 0.00028996		-0.00027516		-0.00071597
O		4.78363325		6.42839294		3.20293228		-0.00028996		 0.00027516		 0.00071597
O		5.72689251		2.23170800		0.67709333		-0.00025499		-0.00035043		 0.00073124
O		1.92528712		6.42839294		3.99303599		 0.00025499		 0.00035043		-0.00073124
O		7.63789642		6.56175705		1.27642323		 0.00023263		-0.00047057		-0.00072276
O		0.01428417		2.09834199		3.39370609		-0.00023263		 0.00047057		 0.00072276
O		0.95754439		6.56175705		0.86786714		-0.00019827		-0.00054435		 0.00073768
O		6.69463715		2.09834199		3.80226218		 0.00019827		 0.00054435		-0.00073768
O		3.33088935		0.05629088		-0.00484858		-0.00005451		 0.00036683		-0.00009923
O		4.32129124		8.60380911		4.67497886		 0.00005451		-0.00036683		 0.00009923
O		5.26455050		0.05629088		2.14913991		 0.00004830		 0.00035650		 0.00010622
O		2.38762913		8.60380911		2.52098846		-0.00004830		-0.00035650		-0.00010622
O		8.10023843		4.38634087		-0.19562334		 0.00001738		 0.00033282		-0.00011701
O		-0.44805879		4.27375912		4.86575267		-0.00001738		-0.00033282		 0.00011701
O		0.49520142		4.38634087		2.33991372		-0.00002356		 0.00032250		 0.00012420
O		7.15698012		4.27375912		2.33021465		 0.00002356		-0.00032250		-0.00012420
