# total energy = -20632.0629049 eV

CRYSTAL
PRIMVEC
		10.10999973		0.00000000		0.00000000
		0.00000000		5.76999926		0.46160237
		0.00000000		0.37600100		4.69999733
PRIMECORD
   28 1
Si		8.51261977		3.21407507		4.34423959		 0.00033871		-0.00048379		 0.00001727
Si		1.59737996		2.93192520		0.81736012		-0.00033871		 0.00048379		-0.00001727
Si		3.26148591		0.33178188		4.14727960		-0.00017192		 0.00012946		 0.00034974
Si		6.84851382		0.04421811		0.55271975		 0.00017192		-0.00012946		-0.00034974
Mg		5.05499986		2.88499963		0.23080017		0.00000000		0.00000000		0.00000000
Mg		0.00000000		0.18800050		2.34999968		0.00000000		0.00000000		0.00000000
Mg		0.00000000		3.07300013		2.58079985		0.00000000		0.00000000		0.00000000
Mg		5.05499986		0.18800050		2.34999968		0.00000000		0.00000000		0.00000000
Mg		2.50930193		1.64570272		2.46194568		 0.00044393		-0.00029978		-0.00014861
Mg		7.60069780		4.50029653		2.69965402		-0.00044393		 0.00029978		 0.00014861
Mg		7.60069780		1.64645491		2.47134596		-0.00019802		-0.00027530		-0.00022561
Mg		2.50930193		4.49954536		2.69025374		 0.00019802		 0.00027530		 0.00022561
O		3.18869391		2.96414779		1.22014958		-0.00006435		-0.00046660		 0.00013977
O		6.92130581		3.18185147		3.94145012		 0.00006435		 0.00046660		-0.00013977
O		1.66006196		3.17666301		3.87658942		-0.00058031		 0.00011889		 0.00010293
O		8.44993777		2.96933725		1.28501028		 0.00058031		-0.00011889		-0.00010293
O		8.39635477		0.08775783		1.09698047		 0.00004937		-0.00029143		-0.00034769
O		1.71364495		0.28824216		3.60301990		-0.00004937		 0.00029143		 0.00034769
O		3.36662991		0.08681760		1.08522961		 0.00068743		 0.00020878		 0.00017428
O		6.74336982		0.28918239		3.61476974		-0.00068743		-0.00020878		-0.00017428
O		0.86036098		1.58676749		1.19495243		 0.00036030		-0.00000086		-0.00015145
O		9.24963875		4.55923176		3.96664828		-0.00036030		 0.00000086		 0.00015145
O		9.24963875		1.79078627		3.74517155		 0.00004474		-0.00076301		-0.00002847
O		0.86036098		4.35521399		1.41642815		-0.00004474		 0.00076301		 0.00002847
O		5.99725184		1.39923306		1.14399095		-0.00021788		-0.00044170		 0.00029524
O		4.11274789		4.74676720		4.01760875		 0.00021788		 0.00044170		-0.00029524
O		4.11274789		1.60904083		3.76659060		-0.00030082		-0.00004447		-0.00039857
O		5.99725184		4.53695842		1.39500910		 0.00030082		 0.00004447		 0.00039857
