# total energy = -18530.8996564 eV

CRYSTAL
PRIMVEC
		4.68600010		0.00000000		0.00000000
		-2.34300005		4.05819324		0.00000000
		0.00000000		0.00000000		12.29417582
PRIMECORD
   30 1
O		1.42548123		0.13229703		2.97027318		 0.00060172		-0.00013130		 0.00016737
O		0.91751882		3.92589809		9.32390217		-0.00060172		 0.00013130		-0.00016737
O		3.85868725		1.16835385		2.97027318		-0.00018715		 0.00058676		 0.00016737
O		-1.51568720		2.88984127		9.32390217		 0.00018715		-0.00058676		-0.00016737
O		1.74483214		2.75754283		2.97027318		-0.00041457		-0.00045545		 0.00016737
O		0.59816791		1.30065088		9.32390217		 0.00041457		 0.00045545		-0.00016737
O		3.76848128		1.48502905		7.06833116		 0.00060527		-0.00011586		 0.00012503
O		0.91751882		1.22043405		1.12778621		-0.00061015		 0.00010661		-0.00009319
O		1.51568720		2.52108586		7.06833116		-0.00020230		 0.00058210		 0.00012503
O		3.17031290		0.18437723		1.12778621		 0.00021275		-0.00058171		-0.00009319
O		1.74483214		0.05208021		7.06833116		-0.00040297		-0.00046625		 0.00012503
O		2.94116797		2.65338289		1.12778621		 0.00039740		 0.00047511		-0.00009319
O		1.42548123		2.83776013		11.16639008		 0.00061015		-0.00010661		 0.00009319
O		-1.42548123		2.57316607		5.22584419		-0.00060527		 0.00011586		-0.00012503
O		-0.82731285		3.87381788		11.16639008		-0.00021275		 0.00058171		 0.00009319
O		0.82731285		1.53710925		5.22584419		 0.00020230		-0.00058210		-0.00012503
O		-0.59816791		1.40481222		11.16639008		-0.00039740		-0.00047511		 0.00009319
O		0.59816791		4.00611491		5.22584419		 0.00040297		 0.00046625		-0.00012503
Mg		0.00000000		0.00000000		4.40869105		0.00000000		0.00000000		 0.00043515
Mg		0.00000000		0.00000000		7.88548429		0.00000000		-0.00000000		-0.00043515
Mg		2.34300005		1.35273202		8.50674997		0.00000000		-0.00000000		 0.00045845
Mg		2.34300005		1.35273202		11.98354321		0.00000000		-0.00000000		-0.00042545
Mg		0.00000000		2.70546310		0.31063307		0.00000000		0.00000000		 0.00042545
Mg		0.00000000		2.70546310		3.78742631		0.00000000		-0.00000000		-0.00045845
Si		0.00000000		0.00000000		1.93018594		0.00000000		0.00000000		 0.00043614
Si		0.00000000		0.00000000		10.36399035		-0.00000000		-0.00000000		-0.00043614
Si		2.34300005		1.35273202		6.02824392		0.00000000		0.00000000		 0.00053388
Si		2.34300005		1.35273202		2.16787298		-0.00000000		-0.00000000		-0.00063907
Si		0.00000000		2.70546310		10.12630330		0.00000000		0.00000000		 0.00063907
Si		0.00000000		2.70546310		6.26593237		-0.00000000		-0.00000000		-0.00053388
