# total energy = -18534.5290355 eV

CRYSTAL
PRIMVEC
		4.68600010		0.00000000		0.00000000
		-2.34300005		4.05819324		0.00000000
		0.00000000		0.00000000		14.28782519
PRIMECORD
   30 1
O		1.42548123		0.13229703		3.45193917		-0.00016431		 0.00025728		-0.00005845
O		0.91751882		3.92589809		10.83588602		 0.00016431		-0.00025728		 0.00005845
O		3.85868725		1.16835385		3.45193917		-0.00014065		-0.00027093		-0.00005845
O		-1.51568720		2.88984127		10.83588602		 0.00014065		 0.00027093		 0.00005845
O		1.74483214		2.75754283		3.45193917		 0.00030496		 0.00001365		-0.00005845
O		0.59816791		1.30065088		10.83588602		-0.00030496		-0.00001365		 0.00005845
O		3.76848128		1.48502905		8.21454741		-0.00016355		 0.00025953		-0.00006665
O		0.91751882		1.22043405		1.31067001		 0.00016186		-0.00025968		 0.00007223
O		1.51568720		2.52108586		8.21454741		-0.00014299		-0.00027140		-0.00006665
O		3.17031290		0.18437723		1.31067001		 0.00014395		 0.00027001		 0.00007223
O		1.74483214		0.05208021		8.21454741		 0.00030654		 0.00001187		-0.00006665
O		2.94116797		2.65338289		1.31067001		-0.00030581		-0.00001034		 0.00007223
O		1.42548123		2.83776013		12.97715518		-0.00016186		 0.00025968		-0.00007223
O		-1.42548123		2.57316607		6.07327825		 0.00016355		-0.00025953		 0.00006665
O		-0.82731285		3.87381788		12.97715518		-0.00014395		-0.00027001		-0.00007223
O		0.82731285		1.53710925		6.07327825		 0.00014299		 0.00027140		 0.00006665
O		-0.59816791		1.40481222		12.97715518		 0.00030581		 0.00001034		-0.00007223
O		0.59816791		4.00611491		6.07327825		-0.00030654		-0.00001187		 0.00006665
Mg		0.00000000		0.00000000		5.12361394		0.00000000		0.00000000		 0.00086240
Mg		0.00000000		0.00000000		9.16421125		0.00000000		-0.00000000		-0.00086240
Mg		2.34300005		1.35273202		9.88622312		0.00000000		0.00000000		 0.00086499
Mg		2.34300005		1.35273202		13.92682043		0.00000000		-0.00000000		-0.00086233
Mg		0.00000000		2.70546310		0.36100617		0.00000000		0.00000000		 0.00086233
Mg		0.00000000		2.70546310		4.40160301		0.00000000		-0.00000000		-0.00086499
Si		0.00000000		0.00000000		2.24318919		0.00000000		0.00000000		-0.00028993
Si		0.00000000		0.00000000		12.04463741		0.00000000		0.00000000		 0.00028993
Si		2.34300005		1.35273202		7.00579696		0.00000000		0.00000000		-0.00027324
Si		2.34300005		1.35273202		2.51941999		-0.00000000		0.00000000		 0.00025700
Si		0.00000000		2.70546310		11.76840614		0.00000000		-0.00000000		-0.00025700
Si		0.00000000		2.70546310		7.28202917		0.00000000		0.00000000		 0.00027324
