# total energy = -18533.8372132 eV

CRYSTAL
PRIMVEC
		4.68600010		0.00000000		0.00000000
		-2.34300005		4.05819324		0.00000000
		0.00000000		0.00000000		12.95872561
PRIMECORD
   30 1
O		1.42548123		0.13229703		3.13082820		 0.00010006		-0.00018491		-0.00008774
O		0.91751882		3.92589809		9.82789741		-0.00010006		 0.00018491		 0.00008774
O		3.85868725		1.16835385		3.13082820		 0.00011010		 0.00017912		-0.00008774
O		-1.51568720		2.88984127		9.82789741		-0.00011010		-0.00017912		 0.00008774
O		1.74483214		2.75754283		3.13082820		-0.00021017		 0.00000580		-0.00008774
O		0.59816791		1.30065088		9.82789741		 0.00021017		-0.00000580		 0.00008774
O		3.76848128		1.48502905		7.45040324		 0.00009697		-0.00018400		-0.00007742
O		0.91751882		1.22043405		1.18874685		-0.00010915		 0.00021292		 0.00006055
O		1.51568720		2.52108586		7.45040324		 0.00011086		 0.00017598		-0.00007742
O		3.17031290		0.18437723		1.18874685		-0.00012981		-0.00020099		 0.00006055
O		1.74483214		0.05208021		7.45040324		-0.00020783		 0.00000802		-0.00007742
O		2.94116797		2.65338289		1.18874685		 0.00023897		-0.00001193		 0.00006055
O		1.42548123		2.83776013		11.76997829		 0.00010915		-0.00021292		-0.00006055
O		-1.42548123		2.57316607		5.50832190		-0.00009697		 0.00018400		 0.00007742
O		-0.82731285		3.87381788		11.76997829		 0.00012981		 0.00020099		-0.00006055
O		0.82731285		1.53710925		5.50832190		-0.00011086		-0.00017598		 0.00007742
O		-0.59816791		1.40481222		11.76997829		-0.00023897		 0.00001193		-0.00006055
O		0.59816791		4.00611491		5.50832190		 0.00020783		-0.00000802		 0.00007742
Mg		0.00000000		0.00000000		4.64699899		0.00000000		0.00000000		 0.00071703
Mg		0.00000000		0.00000000		8.31172614		0.00000000		0.00000000		-0.00071703
Mg		2.34300005		1.35273202		8.96657404		0.00000000		-0.00000000		 0.00066120
Mg		2.34300005		1.35273202		12.63130213		0.00000000		-0.00000000		-0.00061952
Mg		0.00000000		2.70546310		0.32742395		0.00000000		0.00000000		 0.00061952
Mg		0.00000000		2.70546310		3.99215110		0.00000000		0.00000000		-0.00066120
Si		0.00000000		0.00000000		2.03452020		0.00000000		0.00000000		 0.00059798
Si		0.00000000		0.00000000		10.92420541		0.00000000		0.00000000		-0.00059798
Si		2.34300005		1.35273202		6.35409524		0.00000000		0.00000000		 0.00055446
Si		2.34300005		1.35273202		2.28505485		-0.00000000		0.00000000		-0.00049641
Si		0.00000000		2.70546310		10.67367029		-0.00000000		-0.00000000		 0.00049641
Si		0.00000000		2.70546310		6.60463130		0.00000000		0.00000000		-0.00055446
