# total energy = -18279.9264349 eV	

CRYSTAL	
PRIMVEC	
		5.33600083		-0.64031881		0.00000000	
		-3.22253225		4.94127058		0.00000000	
		0.00000000		0.00000000		14.61399977	
PRIMCOORD
   28 1	
Mg		1.77155193		-0.21258617		3.19754291		 0.00141149		 0.00095482		-0.00066670	
Mg		-1.06988086		1.64050222		3.19754291		 0.00127992		-0.00065400		 0.00117896	
Mg		1.41179589		2.87303572		3.19754291		 0.00018830		-0.00147196		-0.00179755	
Mg		3.56444782		-0.42773425		10.50454387		-0.00141149		-0.00095482		-0.00066670	
Mg		-2.15265193		3.30076890		10.50454387		-0.00127992		 0.00065400		 0.00117896	
Mg		0.70167107		1.42791605		10.50454387		-0.00018830		 0.00147196		-0.00179755	
Si		-0.36968879		3.08074096		0.42672926		 0.00023919		-0.00180674		-0.00045106	
Si		2.48315522		1.22020973		7.73372915		-0.00023919		 0.00180674		-0.00045106	
Si		-0.36968879		3.08074096		7.73372915		-0.00059458		-0.00344934		-0.00055772	
Si		2.48315575		1.22021081		0.42672926		 0.00059458		 0.00344934		-0.00055772	
O		-0.36968879		3.08074096		2.05472822		-0.00035208		-0.00059459		 0.00125531	
O		2.48315522		1.22020973		9.36172810		 0.00035208		 0.00059459		 0.00125531	
O		-0.36968879		3.08074096		9.36172810		 0.00069172		 0.00020729		 0.00086519	
O		2.48315575		1.22021081		2.05472822		-0.00069172		-0.00020729		 0.00086519	
O		2.63598421		-0.31631787		14.48247389		-0.00197807		-0.00134670		-0.00254422	
O		-1.59193107		2.44098806		14.48247389		 0.00296163		-0.00180546		-0.00246611	
O		1.06941383		2.17628211		14.48247389		-0.00072615		-0.00160869		 0.00045799	
O		2.70001609		-0.32400202		7.17547401		 0.00197807		 0.00134670		-0.00254422	
O		-1.63060225		2.50028413		7.17547401		-0.00296163		 0.00180546		-0.00246611	
O		1.04405206		2.12467019		7.17547401		 0.00072615		 0.00160869		 0.00045799	
O		3.55733281		-0.42687974		4.17814298		-0.00030501		-0.00192459		 0.00144678	
O		-2.14835573		3.29418110		4.17814298		-0.00030493		-0.00393176		 0.00038462	
O		0.70448881		1.43364987		4.17814298		 0.00503864		 0.00460410		 0.00248695	
O		1.77866694		-0.21344014		11.48514286		 0.00030501		 0.00192459		 0.00144678	
O		-1.07417813		1.64709001		11.48514286		 0.00030493		 0.00393176		 0.00038462	
O		1.40897816		2.86730082		11.48514286		-0.00503864		-0.00460410		 0.00248695	
O		0.00000000		0.00000000		2.10441614		 0.00115365		-0.00133817		 0.00040756	
O		0.00000000		0.00000000		9.41141602		-0.00115365		 0.00133817		 0.00040756	
