# total energy = -18279.9413517 eV	

CRYSTAL	
PRIMVEC	
		5.33600083		0.64031881		0.00000000	
		-2.11346858		4.30095177		0.00000000	
		0.00000000		0.00000000		14.61399977	
PRIMCOORD
   28 1	
Mg		1.77155193		0.21258617		3.19754291		-0.00253906		-0.00031172		-0.00169551	
Mg		-0.70167107		1.42791605		3.19754291		-0.00042118		-0.00174465		-0.00007553	
Mg		2.15265193		3.30076890		3.19754291		 0.00214672		 0.00158647		-0.00090850	
Mg		3.56444782		0.42773425		10.50454387		 0.00253906		 0.00031172		-0.00169551	
Mg		-1.41179589		2.87303572		10.50454387		 0.00042118		 0.00174465		-0.00007553	
Mg		1.06988086		1.64050222		10.50454387		-0.00214672		-0.00158647		-0.00090850	
Si		0.36968879		3.08074096		0.42672926		 0.00098626		-0.00138083		-0.00070034	
Si		2.85284400		1.86053015		7.73372915		-0.00098626		 0.00138083		-0.00070034	
Si		0.36968879		3.08074096		7.73372915		 0.00049628		-0.00177776		 0.00036990	
Si		2.85284508		1.86053123		0.42672926		-0.00049628		 0.00177776		 0.00036990	
O		0.36968879		3.08074096		2.05472822		 0.00358673		-0.00011692		-0.00077274	
O		2.85284400		1.86053015		9.36172810		-0.00358673		 0.00011692		-0.00077274	
O		0.36968879		3.08074096		9.36172810		-0.00116600		-0.00087128		 0.00206202	
O		2.85284508		1.86053123		2.05472822		 0.00116600		 0.00087128		 0.00206202	
O		2.63598421		0.31631787		14.48247389		-0.00363748		 0.00168868		-0.00282939	
O		-1.04405206		2.12467019		14.48247389		 0.00037187		-0.00078974		 0.00070097	
O		1.63060225		2.50028413		14.48247389		 0.00105123		 0.00010689		 0.00099028	
O		2.70001609		0.32400202		7.17547401		 0.00363748		-0.00168868		-0.00282939	
O		-1.06941383		2.17628211		7.17547401		-0.00037187		 0.00078974		 0.00070097	
O		1.59193107		2.44098806		7.17547401		-0.00105123		-0.00010689		 0.00099028	
O		3.55733281		0.42687974		4.17814298		 0.00189285		 0.00161008		-0.00071794	
O		-1.40897816		2.86730082		4.17814298		-0.00000814		 0.00006563		 0.00272130	
O		1.07417813		1.64709001		4.17814298		 0.00006382		 0.00294770		-0.00149580	
O		1.77866694		0.21344014		11.48514286		-0.00189285		-0.00161008		-0.00071794	
O		-0.70448881		1.43364987		11.48514286		 0.00000814		-0.00006563		 0.00272130	
O		2.14835573		3.29418110		11.48514286		-0.00006382		-0.00294770		-0.00149580	
O		0.00000000		0.00000000		2.10441614		 0.00041993		-0.00053667		 0.00235130	
O		0.00000000		0.00000000		9.41141602		-0.00041993		 0.00053667		 0.00235130	
