# total energy = -22459.0340378 eV	

CRYSTAL	
PRIMVEC	
		9.05300002		0.00000000		0.00000000	
		0.00000000		8.25277819		0.00000000	
		-0.52464851		0.00000000		4.72194523	
PRIMCOORD
   40 1	
Ca		6.64561268		0.55706187		0.42544664		 0.00000506		-0.00040838		-0.00064644	
Ca		1.88274336		7.69571270		4.29649587		-0.00000506		 0.00040838		 0.00064644	
Ca		2.14506490		4.68345006		1.93552507		-0.00000506		-0.00040838		 0.00064644	
Ca		6.38329114		3.56932541		2.78641926		 0.00000506		 0.00040838		-0.00064644	
Mg		1.97928999		1.35427992		1.90388845		-0.00048519		 0.00010839		-0.00007272	
Mg		6.54906696		6.89849465		2.81805587		 0.00048519		-0.00010839		 0.00007272	
Mg		6.81138940		5.48066811		0.45708416		 0.00048519		 0.00010839		 0.00007272	
Mg		1.71696845		2.77210737		4.26485926		-0.00048519		-0.00010839		-0.00007272	
Si		4.38151984		1.36996062		2.18484288		-0.00017402		 0.00014712		 0.00009548	
Si		4.14683711		6.88281395		2.53709963		 0.00017402		-0.00014712		-0.00009548	
Si		4.40915865		5.49634790		0.17612793		 0.00017402		 0.00014712		-0.00009548	
Si		4.11919830		2.75642667		4.54581459		-0.00017402		-0.00014712		 0.00009548	
Si		0.14788438		7.05034605		1.24375999		-0.00003657		 0.00004877		-0.00031305	
Si		8.38047347		1.20242942		3.47818434		 0.00003657		-0.00004877		 0.00031305	
Si		8.64279501		2.92395786		1.11721172		 0.00003657		 0.00004877		 0.00031305	
Si		-0.11443807		5.32881671		3.60473079		-0.00003657		-0.00004877		-0.00031305	
O		3.50493414		1.39719476		0.53310673		 0.00024547		 0.00017967		-0.00080026	
O		5.02342190		6.85557981		4.18883578		-0.00024547		-0.00017967		 0.00080026	
O		5.28574434		5.52358295		1.82786408		-0.00024547		 0.00017967		 0.00080026	
O		3.24261170		2.72919343		2.89407934		 0.00024547		-0.00017967		-0.00080026	
O		3.49747718		3.98691586		0.40467091		-0.00016122		-0.00058689		-0.00006563	
O		5.03087976		4.26585871		4.31727341		 0.00016122		 0.00058689		 0.00006563	
O		5.29320220		8.11330315		1.95630080		 0.00016122		-0.00058689		 0.00006563	
O		3.23515474		0.13947233		2.76564172		-0.00016122		 0.00058689		-0.00006563	
O		5.43097891		2.41971391		1.26217560		 0.00030989		-0.00011850		-0.00007105	
O		3.09737713		5.83306066		3.45976782		-0.00030989		 0.00011850		 0.00007105	
O		3.35969867		6.54610119		1.09879611		-0.00030989		-0.00011850		 0.00007105	
O		5.16865737		1.70667428		3.62314731		 0.00030989		 0.00011850		-0.00007105	
O		1.17630971		2.90167571		1.02371686		 0.00007524		-0.00013662		 0.00046592	
O		7.35204724		5.35109886		3.69822565		-0.00007524		 0.00013662		-0.00046592	
O		7.61436878		7.02806300		1.33725394		-0.00007524		-0.00013662		-0.00046592	
O		0.91398817		1.22471157		3.38468857		 0.00007524		 0.00013662		 0.00046592	
O		0.85195973		0.23850491		0.93636085		-0.00004897		-0.00010668		-0.00001963	
O		7.67639631		8.01426966		3.78558167		 0.00004897		 0.00010668		 0.00001963	
O		7.93871785		4.36489310		1.42460996		 0.00004897		-0.00010668		 0.00001963	
O		0.58963819		3.88788238		3.29733346		-0.00004897		 0.00010668		-0.00001963	
O		0.94307183		5.85121736		0.32817487		-0.00048414		-0.00046520		-0.00000520	
O		7.58528420		2.40155812		4.39376764		 0.00048414		 0.00046520		 0.00000520	
O		7.84760574		1.72483007		2.03279684		 0.00048414		-0.00046520		 0.00000520	
O		0.68075029		6.52794540		2.68914658		-0.00048414		 0.00046520		-0.00000520	
