# total energy = -12280.6569395 eV

CRYSTAL
PRIMVEC
		3.14299982		0.00000000		0.00000000
		-1.57149991		2.72191642		0.00000000
		0.00000000		0.00000000		23.91059746
PRIMECORD
   22 1
O		0.00000000		1.81461189		16.07509418		0.00000000		-0.00000000		 0.00008089
O		1.57149991		0.90730610		7.83550359		0.00000000		0.00000000		-0.00008089
O		1.57149991		0.90730610		18.39681401		0.00000000		0.00000000		-0.00008289
O		0.00000000		1.81461189		5.51378376		0.00000000		-0.00000000		 0.00008289
O		0.00000000		1.81461189		10.79563551		0.00000000		-0.00000000		 0.00025762
O		1.57149991		0.90730610		13.11496320		0.00000000		0.00000000		-0.00025762
O		0.00000000		1.81461189		21.44063365		0.00000000		-0.00000000		-0.00045427
O		1.57149991		0.90730610		2.46996381		0.00000000		0.00000000		 0.00045427
O		0.00000000		0.00000000		0.00000000		0.00000000		0.00000000		0.00000000
H		0.00000000		1.81461189		15.03737527		0.00000000		-0.00000000		-0.00023302
H		1.57149991		0.90730610		8.87322344		0.00000000		-0.00000000		 0.00023302
H		0.00000000		1.81461189		9.75552352		0.00000000		0.00000000		-0.00024117
H		1.57149991		0.90730610		14.15507425		0.00000000		-0.00000000		 0.00024117
H		0.00000000		1.81461189		20.40052291		0.00000000		-0.00000000		 0.00014837
H		1.57149991		0.90730610		3.51007580		0.00000000		-0.00000000		-0.00014837
H		1.57149991		0.90730610		19.43692506		0.00000000		0.00000000		-0.00055054
H		0.00000000		1.81461189		4.47367272		0.00000000		0.00000000		 0.00055054
Mg		0.00000000		0.00000000		17.23715016		0.00000000		-0.00000000		-0.00023049
Mg		0.00000000		0.00000000		6.67344761		0.00000000		-0.00000000		 0.00023049
Mg		1.57149991		0.90730610		22.61225283		0.00000000		0.00000000		 0.00012802
Mg		0.00000000		1.81461189		1.29834588		0.00000000		-0.00000000		-0.00012802
Mg		0.00000000		0.00000000		11.95529936		0.00000000		0.00000000		0.00000000
