# total energy = -12280.4683726 eV

CRYSTAL
PRIMVEC
		3.14299982		0.00000000		0.00000000
		-1.57149991		2.72191642		0.00000000
		0.00000000		0.00000000		25.04919629
PRIMECORD
   22 1
O		0.00000000		1.81461189		16.84057493		0.00000000		0.00000000		-0.00031132
O		1.57149991		0.90730610		8.20862261		0.00000000		-0.00000000		 0.00031132
O		1.57149991		0.90730610		19.27285292		0.00000000		-0.00000000		-0.00020987
O		0.00000000		1.81461189		5.77634463		0.00000000		0.00000000		 0.00020987
O		0.00000000		1.81461189		11.30971242		0.00000000		-0.00000000		-0.00026720
O		1.57149991		0.90730610		13.73948513		0.00000000		0.00000000		 0.00026720
O		0.00000000		1.81461189		22.46161671		0.00000000		-0.00000000		-0.00052826
O		1.57149991		0.90730610		2.58758178		0.00000000		-0.00000000		 0.00052826
O		0.00000000		0.00000000		0.00000000		0.00000000		0.00000000		0.00000000
H		0.00000000		1.81461189		15.75344021		0.00000000		-0.00000000		 0.00016529
H		1.57149991		0.90730610		9.29575734		0.00000000		0.00000000		-0.00016529
H		0.00000000		1.81461189		10.22007241		0.00000000		-0.00000000		 0.00019413
H		1.57149991		0.90730610		14.82912513		0.00000000		0.00000000		-0.00019413
H		0.00000000		1.81461189		21.37197576		0.00000000		0.00000000		 0.00029423
H		1.57149991		0.90730610		3.67722179		0.00000000		-0.00000000		-0.00029423
H		1.57149991		0.90730610		20.36249293		0.00000000		0.00000000		-0.00045722
H		0.00000000		1.81461189		4.68670462		0.00000000		-0.00000000		 0.00045722
Mg		0.00000000		0.00000000		18.05796688		0.00000000		-0.00000000		-0.00017942
Mg		0.00000000		0.00000000		6.99123161		0.00000000		0.00000000		 0.00017942
Mg		1.57149991		0.90730610		23.68902666		0.00000000		-0.00000000		 0.00000475
Mg		0.00000000		1.81461189		1.36017183		0.00000000		0.00000000		-0.00000475
Mg		0.00000000		0.00000000		12.52459940		0.00000000		-0.00000000		0.00000000
