# total energy = -34528.0444965 eV

CRYSTAL
PRIMVEC
		8.40959992		0.00000000		0.00000000
		0.00000000		5.30799651		0.00000000
		-0.43245527		0.00000000		13.28131480
PRIMECORD
   56 1
Si		1.13132161		2.54147024		4.82257674		-0.00041336		-0.00032519		-0.00051923
Si		6.84582304		2.76652963		8.45873385		 0.00041336		 0.00032519		 0.00051923
Si		7.06204984		2.54147024		1.81807898		 0.00037045		-0.00035440		 0.00035965
Si		0.91509566		2.76652963		11.46323162		-0.00037045		 0.00035440		-0.00035965
Si		5.33612326		5.19547017		4.82257674		-0.00039037		-0.00033092		-0.00050725
Si		2.64102392		0.11252970		8.45873385		 0.00039037		 0.00033092		 0.00050725
Si		2.85725072		5.19547017		1.81807898		 0.00035008		-0.00036601		 0.00033505
Si		5.11989562		0.11252970		11.46323162		-0.00035008		 0.00036601		-0.00033505
Mg		3.98857317		2.65399994		6.64065488		0.00000000		0.00000000		0.00000000
Mg		4.20479996		2.65399994		0.00000000		0.00000000		0.00000000		0.00000000
Mg		-0.21622679		0.00000000		6.64065488		0.00000000		0.00000000		0.00000000
Mg		0.00000000		0.00000000		0.00000000		0.00000000		0.00000000		0.00000000
O		0.41587238		1.13431964		4.97119455		 0.00009605		-0.00019489		-0.00076927
O		7.56127396		4.17368024		8.31011604		-0.00009605		 0.00019489		 0.00076927
O		7.77750075		1.13431964		1.66946116		-0.00009547		-0.00019711		 0.00078796
O		0.19964474		4.17368024		11.61185027		 0.00009547		 0.00019711		-0.00078796
O		4.62067234		3.78831957		4.97119455		 0.00009139		-0.00019881		-0.00076820
O		3.35647400		1.51968030		8.31011604		-0.00009139		 0.00019881		 0.00076820
O		3.57270079		3.78831957		1.66946116		-0.00009408		-0.00019818		 0.00078784
O		4.40444470		1.51968030		11.61185027		 0.00009408		 0.00019818		-0.00078784
O		2.39648874		2.43743424		5.63791605		-0.00014176		-0.00059657		 0.00068280
O		5.58065676		2.87056564		7.64339371		 0.00014176		 0.00059657		-0.00068280
O		5.79688355		2.43743424		1.00273883		 0.00021636		-0.00057982		-0.00062625
O		2.18026194		2.87056564		12.27857176		-0.00021636		 0.00057982		 0.00062625
O		6.60128870		5.09143417		5.63791605		-0.00016165		-0.00059322		 0.00067181
O		1.37585764		0.21656570		7.64339371		 0.00016165		 0.00059322		-0.00067181
O		1.59208359		5.09143417		1.00273883		 0.00023935		-0.00057563		-0.00061222
O		6.38506191		0.21656570		12.27857176		-0.00023935		 0.00057563		 0.00061222
O		0.36500775		3.65933481		5.65518180		 0.00048008		 0.00001173		 0.00037624
O		7.61213775		1.64866506		7.62612880		-0.00048008		-0.00001173		-0.00037624
O		7.82836454		3.65933481		0.98547308		-0.00048980		-0.00000614		-0.00035183
O		0.14878096		1.64866506		12.29583667		 0.00048980		 0.00000614		 0.00035183
O		4.56980771		1.00533487		5.65518180		 0.00047556		 0.00001550		 0.00037837
O		3.40733778		4.30266500		7.62612880		-0.00047556		-0.00001550		-0.00037837
O		3.62356458		1.00533487		0.98547308		-0.00048636		-0.00000299		-0.00035295
O		4.35358092		4.30266500		12.29583667		 0.00048636		 0.00000299		 0.00035295
O		1.30959083		3.11208094		3.35087489		-0.00091915		 0.00038578		-0.00005544
O		6.66755466		2.19591978		9.93043570		 0.00091915		-0.00038578		 0.00005544
O		6.88378230		3.11208094		3.28978083		 0.00090752		 0.00040504		 0.00013961
O		1.09336488		2.19591978		9.99152976		-0.00090752		-0.00040504		-0.00013961
O		5.51439080		0.45808016		3.35087489		-0.00092086		 0.00038752		-0.00005949
O		2.46275470		4.84991971		9.93043570		 0.00092086		-0.00038752		 0.00005949
O		2.67898233		0.45808016		3.28978083		 0.00090730		 0.00040944		 0.00015182
O		5.29816400		4.84991971		9.99152976		-0.00090730		-0.00040944		-0.00015182
Ca		1.43225326		2.54783967		1.18761463		 0.00046819		-0.00031348		-0.00060222
Ca		6.54489308		2.76016020		12.09369596		-0.00046819		 0.00031348		 0.00060222
Ca		6.76111987		2.54783967		5.45304108		-0.00046240		-0.00031419		 0.00057117
Ca		1.21602563		2.76016020		7.82826951		 0.00046240		 0.00031419		-0.00057117
Ca		5.63705322		5.20183961		1.18761463		 0.00047133		-0.00031421		-0.00060336
Ca		2.34009312		0.10616027		12.09369596		-0.00047133		 0.00031421		 0.00060336
Ca		2.55631991		5.20183961		5.45304108		-0.00046610		-0.00031458		 0.00057238
Ca		5.42082559		0.10616027		7.82826951		 0.00046610		 0.00031458		-0.00057238
Ca		-0.10811298		4.93166271		3.32032786		-0.00000097		 0.00055517		-0.00002294
Ca		-0.32433977		0.37633717		9.96098273		 0.00000097		-0.00055517		 0.00002294
Ca		4.09668699		2.27766277		3.32032786		-0.00000026		 0.00055675		-0.00002311
Ca		3.88046019		3.03033710		9.96098273		 0.00000026		-0.00055675		 0.00002311
