# total energy = -12280.5002314 eV

CRYSTAL
PRIMVEC
		3.03555952		0.00000000		0.00000000
		-1.51777976		2.62887420		0.00000000
		-0.00000629		0.00000943		19.97011486
PRIMECORD
   22 1
O		-0.00000346		1.75258950		13.28919571		 0.00000004		-0.00000003		-0.00036981
O		1.51777787		0.87629632		6.68090658		-0.00000002		-0.00000010		 0.00035983
O		1.51777567		0.87629978		15.37523141		-0.00000003		-0.00000004		 0.00038874
O		0.00000000		1.75258542		4.59494002		-0.00000011		 0.00000010		-0.00039958
O		0.00000000		1.75258762		8.93704865		-0.00000006		 0.00000004		 0.00024236
O		1.51777662		0.87629790		11.03305678		-0.00000005		-0.00000010		-0.00022595
O		-0.00000534		1.75259579		17.72975284		 0.00000060		-0.00000080		-0.00023958
O		1.51778196		0.87629161		2.24041419		-0.00000038		 0.00000051		 0.00021207
O		0.00000000		0.00000000		-0.00008486		-0.00000006		 0.00000025		 0.00003398
H		0.00000000		1.75258888		12.32484605		-0.00000011		 0.00000014		-0.00010011
H		1.51777724		0.87629632		7.64523927		 0.00000009		-0.00000013		 0.00012832
H		0.00000000		1.75258699		7.97235829		-0.00000009		 0.00000013		 0.00059455
H		1.51777567		0.87629821		11.99775531		 0.00000011		-0.00000014		-0.00060929
H		-0.00000409		1.75259170		16.76546981		-0.00000010		 0.00000011		 0.00002390
H		1.51777913		0.87629381		3.20471388		 0.00000004		-0.00000012		-0.00005843
H		1.51777410		0.87630041		16.33568187		 0.00000014		-0.00000019		 0.00025723
H		0.00000000		1.75258448		3.63449271		-0.00000008		 0.00000018		-0.00027046
Mg		-0.00000409		0.00000597		14.33542366		-0.00000004		 0.00000014		-0.00016703
Mg		0.00000000		0.00000000		5.63470377		 0.00000015		-0.00000007		 0.00016841
Mg		1.51777787		0.87629947		18.78089047		-0.00000078		 0.00000088		-0.00002520
Mg		0.00000000		1.75258699		1.18913513		 0.00000065		-0.00000083		 0.00005738
Mg		-0.00000346		0.00000440		9.98504957		 0.00000009		 0.00000009		-0.00000131
