# total energy = -12280.8760059 eV

CRYSTAL
PRIMVEC
		3.07792716		0.00000000		0.00000000
		-1.53896358		2.66555929		0.00000000
		0.00000314		-0.00000943		20.41799862
PRIMECORD
   22 1
O		0.00000000		1.77703387		13.60895571		 0.00000002		-0.00000004		-0.00027661
O		1.53896389		0.88851662		6.80904951		-0.00000002		-0.00000000		 0.00025381
O		1.53896546		0.88851254		15.69999633		-0.00000003		-0.00000000		 0.00022836
O		0.00000000		1.77703733		4.71800135		 0.00000004		 0.00000003		-0.00022995
O		0.00000000		1.77703576		9.15931123		 0.00000002		-0.00000003		 0.00012003
O		1.53896452		0.88851442		11.25868205		-0.00000002		 0.00000003		-0.00009761
O		0.00000000		1.77703010		18.16607099		-0.00000021		 0.00000053		 0.00004254
O		1.53896295		0.88852008		2.25192606		 0.00000016		-0.00000050		-0.00003838
O		0.00000000		0.00000000		0.00000000		 0.00000004		 0.00000003		-0.00000045
H		0.00000000		1.77703450		12.64407614		 0.00000004		-0.00000011		-0.00007196
H		1.53896421		0.88851568		7.77391808		-0.00000005		 0.00000013		 0.00009100
H		0.00000000		1.77703639		8.19415099		 0.00000005		-0.00000013		 0.00049200
H		1.53896484		0.88851379		12.22385329		-0.00000005		 0.00000012		-0.00051115
H		0.00000000		1.77703293		17.20147272		 0.00000004		-0.00000013		-0.00022299
H		1.53896358		0.88851725		3.21652590		-0.00000005		 0.00000014		 0.00022014
H		1.53896546		0.88851159		16.66143149		-0.00000006		 0.00000016		 0.00027646
H		0.00000000		1.77703859		3.75656525		 0.00000006		-0.00000017		-0.00027447
Mg		0.00000000		-0.00000597		14.65739005		-0.00000000		-0.00000002		-0.00019561
Mg		0.00000000		0.00000000		5.76060825		-0.00000001		 0.00000001		 0.00019842
Mg		1.53896484		0.88851442		19.21603283		 0.00000028		-0.00000081		 0.00013996
Mg		0.00000000		1.77703607		1.20196768		-0.00000027		 0.00000075		-0.00014088
Mg		0.00000000		-0.00000440		10.20900088		 0.00000001		 0.00000002		-0.00000266
