# total energy = -12280.7059197 eV

CRYSTAL
PRIMVEC
		3.05600159		0.00000000		0.00000000
		-1.52800079		2.64657243		0.00000000
		0.00000000		0.00000000		20.17078283
PRIMECORD
   22 1
O		0.00000000		1.76438204		13.43189891		 0.00000001		 0.00000002		-0.00027877
O		1.52799985		0.88219102		6.73887198		 0.00000005		 0.00000004		 0.00027733
O		1.52800017		0.88219102		15.52098551		-0.00000006		-0.00000005		 0.00013958
O		0.00000000		1.76438235		4.64981523		 0.00000002		 0.00000001		-0.00013561
O		0.00000000		1.76438235		9.03695205		-0.00000011		-0.00000006		 0.00026858
O		1.52799922		0.88219071		11.13383832		 0.00000013		 0.00000004		-0.00027345
O		0.00000000		1.76438110		17.92495293		 0.00000009		 0.00000009		-0.00021319
O		1.52800111		0.88219165		2.24585033		-0.00000010		-0.00000004		 0.00020573
O		0.00000000		0.00000000		-0.00003080		 0.00000006		-0.00000004		 0.00001273
H		0.00000000		1.76438204		12.46717585		 0.00000004		-0.00000001		 0.00008817
H		1.52800017		0.88219102		7.70358843		-0.00000005		-0.00000000		-0.00007670
H		0.00000000		1.76438204		8.07214822		 0.00000006		 0.00000001		 0.00026998
H		1.52800017		0.88219102		12.09864027		-0.00000004		 0.00000001		-0.00026653
H		0.00000000		1.76438173		16.96042003		-0.00000002		-0.00000002		 0.00001390
H		1.52800048		0.88219133		3.21039014		-0.00000000		 0.00000001		-0.00002775
H		1.52799985		0.88219071		16.48193037		 0.00000002		 0.00000003		 0.00024214
H		0.00000000		1.76438267		3.68887572		0.00000000		-0.00000002		-0.00025427
Mg		0.00000000		0.00000000		14.47958081		-0.00000003		-0.00000001		-0.00025104
Mg		0.00000000		0.00000000		5.69120579		-0.00000000		-0.00000001		 0.00024946
Mg		1.52800079		0.88219071		18.97559177		-0.00000015		-0.00000008		 0.00018451
Mg		0.00000000		1.76438235		1.19516340		 0.00000013		 0.00000007		-0.00017491
Mg		0.00000000		0.00000000		10.08539361		-0.00000002		0.00000000		 0.00000015
