# total energy = -20632.8466544 eV

CRYSTAL
PRIMVEC
		10.05000003		0.00000000		0.00000000
		0.00000000		5.74999697		0.00000000
		0.00000000		0.00000000		4.38299596
PRIMECORD
   28 1
Si		3.34665001		0.00000000		3.93900204		 0.00024781		0.00000000		 0.00036458
Si		6.70335002		0.00000000		0.44399795		-0.00024781		0.00000000		-0.00036458
Si		8.37165002		2.87500049		3.93900204		 0.00027542		-0.00000000		 0.00034307
Si		1.67835000		2.87500049		0.44399795		-0.00027542		-0.00000000		-0.00034307
Mg		0.00000000		0.00000000		0.00000000		0.00000000		0.00000000		0.00000000
Mg		5.02500001		2.87500049		0.00000000		0.00000000		0.00000000		0.00000000
Mg		5.02500001		0.00000000		2.19149999		0.00000000		0.00000000		0.00000000
Mg		0.00000000		2.87500049		2.19149999		0.00000000		0.00000000		0.00000000
Mg		2.51250001		1.43749974		2.19149999		-0.00003167		-0.00000776		 0.00000311
Mg		7.53750002		4.31250024		2.19149999		 0.00003167		 0.00000776		-0.00000311
Mg		7.53750002		1.43749974		2.19149999		 0.00003167		-0.00000776		-0.00000311
Mg		2.51250001		4.31250024		2.19149999		-0.00003167		 0.00000776		 0.00000311
O		8.23497002		0.00000000		0.97302593		 0.00028577		0.00000000		-0.00030997
O		1.81503001		0.00000000		3.40997406		-0.00028577		0.00000000		 0.00030997
O		3.20997001		2.87500049		0.97302593		 0.00025499		-0.00000000		-0.00028438
O		6.84003002		2.87500049		3.40997406		-0.00025499		-0.00000000		 0.00028438
O		3.35770501		0.00000000		1.03131995		 0.00009189		-0.00000000		-0.00038942
O		6.69229502		0.00000000		3.35168003		-0.00009189		-0.00000000		 0.00038942
O		8.38270502		2.87500049		1.03131995		 0.00010859		0.00000000		-0.00039493
O		1.66729500		2.87500049		3.35168003		-0.00010859		0.00000000		 0.00039493
O		0.91254000		1.55422547		0.98748989		-0.00043785		-0.00032892		 0.00012359
O		9.13746003		4.19577451		3.39551010		 0.00043785		 0.00032892		-0.00012359
O		9.13746003		1.55422547		3.39551010		 0.00043785		-0.00032892		-0.00012359
O		0.91254000		4.19577451		0.98748989		-0.00043785		 0.00032892		 0.00012359
O		5.93754002		4.42922496		0.98748989		-0.00041034		-0.00032999		 0.00011302
O		4.11246001		1.32077502		3.39551010		 0.00041034		 0.00032999		-0.00011302
O		4.11246001		4.42922496		3.39551010		 0.00041034		-0.00032999		-0.00011302
O		5.93754002		1.32077502		0.98748989		-0.00041034		 0.00032999		 0.00011302
