# total energy = -20635.8247681 eV

CRYSTAL
PRIMVEC
		10.05000003		0.00000000		0.00000000
		0.00000000		5.74999697		0.00000000
		0.00000000		0.00000000		5.11350032
PRIMECORD
   28 1
Si		3.34665001		0.00000000		4.59550221		 0.00012209		0.00000000		-0.00000354
Si		6.70335002		0.00000000		0.51799811		-0.00012209		0.00000000		 0.00000354
Si		8.37165002		2.87500049		4.59550221		 0.00016344		0.00000000		-0.00001522
Si		1.67835000		2.87500049		0.51799811		-0.00016344		0.00000000		 0.00001522
Mg		0.00000000		0.00000000		0.00000000		0.00000000		0.00000000		0.00000000
Mg		5.02500001		2.87500049		0.00000000		0.00000000		0.00000000		0.00000000
Mg		5.02500001		0.00000000		2.55675016		0.00000000		0.00000000		0.00000000
Mg		0.00000000		2.87500049		2.55675016		0.00000000		0.00000000		0.00000000
Mg		2.51250001		1.43749974		2.55675016		 0.00000980		 0.00000616		-0.00000334
Mg		7.53750002		4.31250024		2.55675016		-0.00000980		-0.00000616		 0.00000334
Mg		7.53750002		1.43749974		2.55675016		-0.00000980		 0.00000616		 0.00000334
Mg		2.51250001		4.31250024		2.55675016		 0.00000980		-0.00000616		-0.00000334
O		8.23497002		0.00000000		1.13519675		-0.00017251		0.00000000		-0.00034664
O		1.81503001		0.00000000		3.97830256		 0.00017251		0.00000000		 0.00034664
O		3.20997001		2.87500049		1.13519675		-0.00020014		0.00000000		-0.00034025
O		6.84003002		2.87500049		3.97830256		 0.00020014		0.00000000		 0.00034025
O		3.35770501		0.00000000		1.20320711		-0.00006947		-0.00000000		-0.00051542
O		6.69229502		0.00000000		3.91029321		 0.00006947		-0.00000000		 0.00051542
O		8.38270502		2.87500049		1.20320711		-0.00005266		0.00000000		-0.00053038
O		1.66729500		2.87500049		3.91029321		 0.00005266		0.00000000		 0.00053038
O		0.91254000		1.55422547		1.15207170		-0.00012527		 0.00018627		-0.00000380
O		9.13746003		4.19577451		3.96142761		 0.00012527		-0.00018627		 0.00000380
O		9.13746003		1.55422547		3.96142761		 0.00012527		 0.00018627		 0.00000380
O		0.91254000		4.19577451		1.15207170		-0.00012527		-0.00018627		-0.00000380
O		5.93754002		4.42922496		1.15207170		-0.00010748		 0.00019282		-0.00002153
O		4.11246001		1.32077502		3.96142761		 0.00010748		-0.00019282		 0.00002153
O		4.11246001		4.42922496		3.96142761		 0.00010748		 0.00019282		 0.00002153
O		5.93754002		1.32077502		1.15207170		-0.00010748		-0.00019282		-0.00002153
