# total energy = -20633.5704984 eV

CRYSTAL
PRIMVEC
		10.05000003		0.00000000		0.00000000
		0.00000000		5.74999697		0.00000000
		0.00000000		0.00000000		5.35700177
PRIMECORD
   28 1
Si		3.34665001		0.00000000		4.81433593		 0.00007649		0.00000000		-0.00037909
Si		6.70335002		0.00000000		0.54266382		-0.00007649		0.00000000		 0.00037909
Si		8.37165002		2.87500049		4.81433593		 0.00011840		0.00000000		-0.00039177
Si		1.67835000		2.87500049		0.54266382		-0.00011840		0.00000000		 0.00039177
Mg		0.00000000		0.00000000		0.00000000		0.00000000		0.00000000		0.00000000
Mg		5.02500001		2.87500049		0.00000000		0.00000000		0.00000000		0.00000000
Mg		5.02500001		0.00000000		2.67849988		0.00000000		0.00000000		0.00000000
Mg		0.00000000		2.87500049		2.67849988		0.00000000		0.00000000		0.00000000
Mg		2.51250001		1.43749974		2.67849988		 0.00004014		 0.00001323		-0.00000600
Mg		7.53750002		4.31250024		2.67849988		-0.00004014		-0.00001323		 0.00000600
Mg		7.53750002		1.43749974		2.67849988		-0.00004014		 0.00001323		 0.00000600
Mg		2.51250001		4.31250024		2.67849988		 0.00004014		-0.00001323		-0.00000600
O		8.23497002		0.00000000		1.18925369		-0.00017800		0.00000000		-0.00052482
O		1.81503001		0.00000000		4.16774607		 0.00017800		0.00000000		 0.00052482
O		3.20997001		2.87500049		1.18925369		-0.00019649		0.00000000		-0.00051766
O		6.84003002		2.87500049		4.16774607		 0.00019649		0.00000000		 0.00051766
O		3.35770501		0.00000000		1.26050216		-0.00011062		0.00000000		-0.00031190
O		6.69229502		0.00000000		4.09649760		 0.00011062		0.00000000		 0.00031190
O		8.38270502		2.87500049		1.26050216		-0.00010375		-0.00000000		-0.00033366
O		1.66729500		2.87500049		4.09649760		 0.00010375		-0.00000000		 0.00033366
O		0.91254000		1.55422547		1.20693164		-0.00006947		 0.00024157		-0.00008374
O		9.13746003		4.19577451		4.15006812		 0.00006947		-0.00024157		 0.00008374
O		9.13746003		1.55422547		4.15006812		 0.00006947		 0.00024157		 0.00008374
O		0.91254000		4.19577451		1.20693164		-0.00006947		-0.00024157		-0.00008374
O		5.93754002		4.42922496		1.20693164		-0.00005938		 0.00024805		-0.00009720
O		4.11246001		1.32077502		4.15006812		 0.00005938		-0.00024805		 0.00009720
O		4.11246001		4.42922496		4.15006812		 0.00005938		 0.00024805		 0.00009720
O		5.93754002		1.32077502		1.20693164		-0.00005938		-0.00024805		-0.00009720
