
     Program PWSCF v.6.6 starts on  4Feb2024 at 13:34:19 

     This program is part of the open-source Quantum ESPRESSO suite
     for quantum simulation of materials; please cite
         "P. Giannozzi et al., J. Phys.:Condens. Matter 21 395502 (2009);
         "P. Giannozzi et al., J. Phys.:Condens. Matter 29 465901 (2017);
          URL http://www.quantum-espresso.org", 
     in publications or presentations arising from this work. More details at
     http://www.quantum-espresso.org/quote

     Parallel version (MPI & OpenMP), running on      16 processor cores
     Number of MPI processes:                16
     Threads/MPI process:                     1

     MPI processes distributed on     2 nodes
     R & G space division:  proc/nbgrp/npool/nimage =      16
     Fft bands division:     nmany     =       1
     Waiting for input...
     Reading input from standard input

     Current dimensions of program PWSCF are:
     Max number of different atomic species (ntypx) = 10
     Max number of k-points (npk) =  40000
     Max angular momentum in pseudopotentials (lmaxx) =  3

     IMPORTANT: XC functional enforced from input :
     Exchange-correlation= PBE
                           (   1   4   3   4   0   0   0)
     Any further DFT definition will be discarded
     Please, verify this is what you really want


     --------------------------------------------
     Parameters for DFT-D3 Dispersion Correction:
     --------------------------------------------
       Reference C6 values for interpolation: 

         atom   Coordination number   C6
         O          0.000            31.01
         O          0.993            25.63
         O          1.989            20.74
         Mg         0.000          1366.75
         Mg         0.963           902.54
         Mg         1.950           351.12

       Values used:

         atom   Coordination number  R0_AB[au]  C6      C8
         Mg        16.030            3.292    351.12  31436.69
         Mg        16.030            3.292    351.12  31436.69
         Mg        16.030            3.292    351.12  31436.69
         Mg        16.030            3.292    351.12  31436.69
         O          5.822            2.345     20.74    418.58
         O          5.822            2.345     20.74    418.58
         O          5.822            2.345     20.74    418.58
         O          5.822            2.345     20.74    418.58

         Molecular C6 ( Ry / a.u.^6 ) =      8251.69


     Subspace diagonalization in iterative solution of the eigenvalue problem:
     a serial algorithm will be used

     Found symmetry operation: I + ( -0.0000  0.5000  0.5000)
     This is a supercell, fractional translations are disabled
     Message from routine setup:
     using ibrav=0 with symmetry is DISCOURAGED, use correct ibrav instead
 
     Parallelization info
     --------------------
     sticks:   dense  smooth     PW     G-vecs:    dense   smooth      PW
     Min         124     124     35                 4192     4192     623
     Max         125     125     36                 4195     4195     625
     Sum        1999    1999    561                67101    67101    9983
 


     bravais-lattice index     =            0
     lattice parameter (alat)  =       8.0147  a.u.
     unit-cell volume          =     496.6530 (a.u.)^3
     number of atoms/cell      =            8
     number of atomic types    =            2
     number of electrons       =        64.00
     number of Kohn-Sham states=           38
     kinetic-energy cutoff     =     100.0000  Ry
     charge density cutoff     =     400.0000  Ry
     convergence threshold     =      1.0E-06
     mixing beta               =       0.5000
     number of iterations used =            8  plain     mixing
     Exchange-correlation= PBE
                           (   1   4   3   4   0   0   0)
     nstep                     =          100


     celldm(1)=   8.014727  celldm(2)=   0.000000  celldm(3)=   0.000000
     celldm(4)=   0.000000  celldm(5)=   0.000000  celldm(6)=   0.000000

     crystal axes: (cart. coord. in units of alat)
               a(1) = (   0.992877   0.119145   0.000000 )  
               a(2) = (   0.119145   0.992877   0.000000 )  
               a(3) = (   0.000000   0.000000   0.992877 )  

     reciprocal axes: (cart. coord. in units 2 pi/alat)
               b(1) = (  1.021889 -0.122627  0.000000 )  
               b(2) = ( -0.122627  1.021889  0.000000 )  
               b(3) = (  0.000000  0.000000  1.007174 )  


     PseudoPot. # 1 for Mg read from file:
     ./Mg.upf
     MD5 check sum: 4c04d8c6e0476e83eaecaf72fa8acc4d
     Pseudo is Norm-conserving, Zval = 10.0
     Generated using ONCVPSP code by D. R. Hamann
     Using radial grid of 1510 points,  4 beta functions with: 
                l(1) =   0
                l(2) =   0
                l(3) =   1
                l(4) =   1

     PseudoPot. # 2 for O  read from file:
     ./O.upf
     MD5 check sum: 3e3f909f7470e8921608ab6b1f57bbae
     Pseudo is Norm-conserving + core correction, Zval =  6.0
     Generated using ONCVPSP code by D. R. Hamann
     Using radial grid of  936 points,  5 beta functions with: 
                l(1) =   0
                l(2) =   0
                l(3) =   1
                l(4) =   1
                l(5) =   2

     atomic species   valence    mass     pseudopotential
        Mg            10.00    24.30500     Mg( 1.00)
        O              6.00    15.99900     O ( 1.00)

      8 Sym. Ops., with inversion, found



   Cartesian axes

     site n.     atom                  positions (alat units)
         1           Mg  tau(   1) = (   0.0000000   0.0000000   0.0000000  )
         2           Mg  tau(   2) = (   0.0595726   0.4964384   0.4964384  )
         3           Mg  tau(   3) = (   0.4964384   0.0595726   0.4964384  )
         4           Mg  tau(   4) = (   0.5560110   0.5560110   0.0000000  )
         5           O   tau(   5) = (   0.5560110   0.5560110   0.4964384  )
         6           O   tau(   6) = (   0.4964384   0.0595726   0.0000000  )
         7           O   tau(   7) = (   0.0595726   0.4964384   0.0000000  )
         8           O   tau(   8) = (   0.0000000   0.0000000   0.4964384  )

     number of k points=    27  Gaussian smearing, width (Ry)=  0.0050
                       cart. coord. in units 2pi/alat
        k(    1) = (   0.0000000   0.0000000   0.0000000), wk =   0.0160000
        k(    2) = (   0.0000000   0.0000000   0.2014349), wk =   0.0320000
        k(    3) = (   0.0000000   0.0000000   0.4028697), wk =   0.0320000
        k(    4) = (  -0.0245253   0.2043779   0.0000000), wk =   0.0640000
        k(    5) = (  -0.0245253   0.2043779   0.2014349), wk =   0.1280000
        k(    6) = (  -0.0245253   0.2043779   0.4028697), wk =   0.1280000
        k(    7) = (  -0.0490507   0.4087558   0.0000000), wk =   0.0640000
        k(    8) = (  -0.0490507   0.4087558   0.2014349), wk =   0.1280000
        k(    9) = (  -0.0490507   0.4087558   0.4028697), wk =   0.1280000
        k(   10) = (   0.1798525   0.1798525   0.0000000), wk =   0.0320000
        k(   11) = (   0.1798525   0.1798525   0.2014349), wk =   0.0640000
        k(   12) = (   0.1798525   0.1798525   0.4028697), wk =   0.0640000
        k(   13) = (   0.1553272   0.3842304   0.0000000), wk =   0.0640000
        k(   14) = (   0.1553272   0.3842304   0.2014349), wk =   0.1280000
        k(   15) = (   0.1553272   0.3842304   0.4028697), wk =   0.1280000
        k(   16) = (   0.2534286  -0.4332811   0.0000000), wk =   0.0640000
        k(   17) = (   0.2534286  -0.4332811   0.2014349), wk =   0.1280000
        k(   18) = (   0.2534286  -0.4332811   0.4028697), wk =   0.1280000
        k(   19) = (   0.2289032  -0.2289032   0.0000000), wk =   0.0320000
        k(   20) = (   0.2289032  -0.2289032   0.2014349), wk =   0.0640000
        k(   21) = (   0.2289032  -0.2289032   0.4028697), wk =   0.0640000
        k(   22) = (   0.3597051   0.3597051   0.0000000), wk =   0.0320000
        k(   23) = (   0.3597051   0.3597051   0.2014349), wk =   0.0640000
        k(   24) = (   0.3597051   0.3597051   0.4028697), wk =   0.0640000
        k(   25) = (   0.4578065  -0.4578065   0.0000000), wk =   0.0320000
        k(   26) = (   0.4578065  -0.4578065   0.2014349), wk =   0.0640000
        k(   27) = (   0.4578065  -0.4578065   0.4028697), wk =   0.0640000

     Dense  grid:    67101 G-vectors     FFT dimensions: (  54,  54,  54)

     Estimated max dynamical RAM per process >      15.67 MB

     Estimated total dynamical RAM >     250.78 MB

     Initial potential from superposition of free atoms

     starting charge   63.99678, renormalised to   64.00000
     Starting wfcs are   36 randomized atomic wfcs +    2 random wfcs

     total cpu time spent up to now is        0.9 secs

     Self-consistent Calculation

     iteration #  1     ecut=   100.00 Ry     beta= 0.50
     Davidson diagonalization with overlap
     ethr =  1.00E-02,  avg # of iterations =  4.0

     total cpu time spent up to now is        7.5 secs

     total energy              =    -607.86646851 Ry
     estimated scf accuracy    <       1.62568309 Ry

     iteration #  2     ecut=   100.00 Ry     beta= 0.50
     Davidson diagonalization with overlap
     ethr =  2.54E-03,  avg # of iterations =  2.1

     total cpu time spent up to now is        9.6 secs

     total energy              =    -608.32707761 Ry
     estimated scf accuracy    <       0.25277868 Ry

     iteration #  3     ecut=   100.00 Ry     beta= 0.50
     Davidson diagonalization with overlap
     ethr =  3.95E-04,  avg # of iterations =  2.4

     total cpu time spent up to now is       11.9 secs

     total energy              =    -608.36322583 Ry
     estimated scf accuracy    <       0.01336608 Ry

     iteration #  4     ecut=   100.00 Ry     beta= 0.50
     Davidson diagonalization with overlap
     ethr =  2.09E-05,  avg # of iterations =  4.3

     total cpu time spent up to now is       14.6 secs

     total energy              =    -608.36394013 Ry
     estimated scf accuracy    <       0.00167948 Ry

     iteration #  5     ecut=   100.00 Ry     beta= 0.50
     Davidson diagonalization with overlap
     ethr =  2.62E-06,  avg # of iterations =  4.7

     total cpu time spent up to now is       17.4 secs

     total energy              =    -608.36431838 Ry
     estimated scf accuracy    <       0.00005099 Ry

     iteration #  6     ecut=   100.00 Ry     beta= 0.50
     Davidson diagonalization with overlap
     ethr =  7.97E-08,  avg # of iterations =  2.1

     total cpu time spent up to now is       19.3 secs

     total energy              =    -608.36433119 Ry
     estimated scf accuracy    <       0.00000290 Ry

     iteration #  7     ecut=   100.00 Ry     beta= 0.50
     Davidson diagonalization with overlap
     ethr =  4.54E-09,  avg # of iterations =  2.1

     total cpu time spent up to now is       20.8 secs

     total energy              =    -608.36433038 Ry
     estimated scf accuracy    <       0.00000190 Ry

     iteration #  8     ecut=   100.00 Ry     beta= 0.50
     Davidson diagonalization with overlap
     ethr =  2.97E-09,  avg # of iterations =  2.0

     total cpu time spent up to now is       22.7 secs

     End of self-consistent calculation

          k = 0.0000 0.0000 0.0000 (  8363 PWs)   bands (ev):

   -64.3025 -64.2917 -64.2821 -64.2821 -31.2468 -31.2468 -31.1185 -31.1035
   -31.1008 -31.0534 -31.0534 -31.0347 -31.0339 -31.0086 -31.0086 -30.9961
    -8.8784  -7.3514  -7.0812  -7.0810   4.2301   4.3623   4.3623   5.7296
     7.0497   7.0498   7.1564   7.1566   7.6291   8.2072   8.7043   9.5303
    12.6235  15.2956  17.6081  18.4009  18.4009  20.5605

          k = 0.0000 0.0000 0.2014 (  8413 PWs)   bands (ev):

   -64.3015 -64.2927 -64.2821 -64.2821 -31.2462 -31.2462 -31.1168 -31.1025
   -31.0977 -31.0541 -31.0541 -31.0421 -31.0303 -31.0092 -31.0092 -30.9997
    -8.7347  -7.4975  -7.0596  -7.0594   4.4310   4.5464   4.5464   5.8753
     6.7007   6.7007   7.0087   7.0089   7.3991   7.4592   8.7743   9.4412
    13.4886  15.6334  18.0339  18.0339  18.9655  18.9656

          k = 0.0000 0.0000 0.4029 (  8388 PWs)   bands (ev):

   -64.2988 -64.2954 -64.2821 -64.2821 -31.2451 -31.2451 -31.1123 -31.1069
   -31.0818 -31.0606 -31.0551 -31.0551 -31.0208 -31.0101 -31.0101 -31.0091
    -8.3553  -7.8815  -7.0244  -7.0242   5.0509   5.0509   5.0715   5.9503
     5.9503   6.1535   6.2845   6.7806   6.7808   6.8590   8.9654   9.2194
    15.0723  16.0310  18.6892  18.6892  19.6334  20.1983

          k =-0.0245 0.2044 0.0000 (  8382 PWs)   bands (ev):

   -64.3006 -64.2908 -64.2840 -64.2830 -31.2347 -31.2333 -31.1308 -31.1150
   -31.0987 -31.0582 -31.0516 -31.0364 -31.0320 -31.0115 -31.0078 -30.9978
    -8.7176  -7.3091  -7.2650  -7.0902   4.4352   4.5790   4.6226   5.6286
     6.7580   6.8870   7.1559   7.2355   7.2577   8.0805   8.2422   8.9675
    13.4678  15.8637  17.9525  18.0154  18.1853  18.9151

          k =-0.0245 0.2044 0.2014 (  8389 PWs)   bands (ev):

   -64.2996 -64.2917 -64.2839 -64.2831 -31.2341 -31.2330 -31.1300 -31.1169
   -31.0935 -31.0591 -31.0536 -31.0438 -31.0281 -31.0106 -31.0078 -31.0001
    -8.5815  -7.4390  -7.2261  -7.0838   4.5067   4.7112   4.7603   5.8759
     6.0981   6.6968   6.7722   7.2045   7.2305   7.8128   8.3317   8.9842
    14.0693  16.1458  18.0831  18.1961  18.7222  19.3550

          k =-0.0245 0.2044 0.4029 (  8392 PWs)   bands (ev):

   -64.2972 -64.2941 -64.2837 -64.2834 -31.2331 -31.2327 -31.1268 -31.1216
   -31.0796 -31.0609 -31.0597 -31.0575 -31.0183 -31.0091 -31.0081 -31.0074
    -8.2248  -7.7866  -7.1453  -7.0904   4.8861   4.9668   5.2747   5.4209
     5.6854   6.0240   6.4642   7.1384   7.1826   7.2257   8.5623   8.8311
    15.3823  16.3631  18.4152  18.4221  19.7173  20.0420

          k =-0.0491 0.4088 0.0000 (  8398 PWs)   bands (ev):

   -64.2955 -64.2892 -64.2884 -64.2854 -31.2028 -31.1973 -31.1631 -31.1521
   -31.0861 -31.0707 -31.0469 -31.0411 -31.0265 -31.0186 -31.0054 -31.0017
    -8.2869  -7.7329  -7.2145  -7.1307   5.0226   5.0764   5.3447   5.4268
     5.8855   6.3428   6.7598   7.3064   7.4603   7.5060   7.7801   8.1293
    15.0933  16.7686  17.2550  18.7354  18.9179  19.4163

          k =-0.0491 0.4088 0.2014 (  8387 PWs)   bands (ev):

   -64.2948 -64.2890 -64.2888 -64.2858 -31.2024 -31.1980 -31.1627 -31.1538
   -31.0837 -31.0709 -31.0516 -31.0478 -31.0222 -31.0153 -31.0047 -31.0017
    -8.1737  -7.6558  -7.3016  -7.1653   4.7297   5.0493   5.1748   5.6559
     5.8731   5.8865   7.1718   7.1958   7.4793   7.5558   7.7714   8.0776
    15.4104  16.9779  17.3777  18.4854  19.2722  19.3923

          k =-0.0491 0.4088 0.4029 (  8384 PWs)   bands (ev):

   -64.2930 -64.2908 -64.2878 -64.2867 -31.2012 -31.1997 -31.1610 -31.1576
   -31.0756 -31.0686 -31.0621 -31.0611 -31.0129 -31.0092 -31.0051 -31.0049
    -7.8848  -7.5489  -7.4708  -7.2813   4.6855   4.8303   4.8824   5.1263
     5.9520   6.5463   6.5818   7.2350   7.5601   7.6345   7.8353   8.0842
    16.2256  17.1260  17.3965  17.8667  19.8210  19.9364

          k = 0.1799 0.1799 0.0000 (  8384 PWs)   bands (ev):

   -64.3013 -64.2925 -64.2823 -64.2823 -31.2476 -31.2476 -31.1163 -31.1020
   -31.0965 -31.0538 -31.0538 -31.0408 -31.0365 -31.0060 -31.0046 -31.0046
    -8.6618  -7.3985  -7.1182  -7.1179   4.5399   4.5872   4.5873   5.1479
     6.5203   6.9885   6.9886   7.0246   7.0248   7.7478   8.7679   9.4350
    14.0512  16.6092  18.2899  18.2899  18.4857  18.4857

          k = 0.1799 0.1799 0.2014 (  8381 PWs)   bands (ev):

   -64.3004 -64.2933 -64.2823 -64.2823 -31.2477 -31.2477 -31.1149 -31.1034
   -31.0948 -31.0539 -31.0539 -31.0511 -31.0307 -31.0049 -31.0049 -31.0047
    -8.5342  -7.5076  -7.0950  -7.0947   4.2464   4.6481   4.6482   5.7786
     5.8452   6.5133   6.5134   7.2541   7.2542   7.8997   8.8252   9.3642
    14.4806  16.9097  17.6674  17.6675  19.7232  19.8716

          k = 0.1799 0.1799 0.4029 (  8399 PWs)   bands (ev):

   -64.2982 -64.2955 -64.2823 -64.2823 -31.2479 -31.2479 -31.1113 -31.1069
   -31.0868 -31.0706 -31.0540 -31.0540 -31.0183 -31.0079 -31.0055 -31.0055
    -8.2040  -7.8091  -7.0570  -7.0568   4.2772   4.7462   4.7463   4.8725
     6.1561   6.1563   6.7292   7.2130   7.2131   7.5566   8.9811   9.1865
    15.7041  17.0653  17.4978  17.4978  18.8917  19.7321

          k = 0.1553 0.3842 0.0000 (  8386 PWs)   bands (ev):

   -64.2983 -64.2923 -64.2852 -64.2825 -31.2371 -31.2332 -31.1271 -31.1174
   -31.0861 -31.0640 -31.0477 -31.0469 -31.0350 -31.0139 -31.0076 -30.9981
    -8.3330  -7.4704  -7.4315  -7.0195   4.8396   4.9599   5.0320   5.1159
     5.7201   6.2482   6.6507   7.2601   7.2832   7.4268   8.4240   8.9426
    15.4997  16.9575  17.7538  18.4207  19.0788  19.3235

          k = 0.1553 0.3842 0.2014 (  8396 PWs)   bands (ev):

   -64.2978 -64.2928 -64.2850 -64.2828 -31.2375 -31.2343 -31.1262 -31.1185
   -31.0885 -31.0624 -31.0587 -31.0484 -31.0276 -31.0091 -31.0065 -30.9989
    -8.2300  -7.4953  -7.4062  -7.0388   4.1467   4.8789   4.9725   5.0913
     5.9901   5.9908   7.0267   7.0993   7.5238   7.6684   8.4782   8.8566
    15.6801  16.6588  17.5526  18.0153  19.5184  19.8792

          k = 0.1553 0.3842 0.4029 (  8387 PWs)   bands (ev):

   -64.2962 -64.2944 -64.2843 -64.2834 -31.2378 -31.2366 -31.1240 -31.1211
   -31.0873 -31.0763 -31.0580 -31.0526 -31.0147 -31.0073 -31.0039 -31.0011
    -7.9730  -7.6891  -7.2569  -7.1150   3.8904   4.2591   4.6904   4.7261
     6.1525   6.6006   7.0137   7.4730   7.5708   7.7062   8.6010   8.7142
    16.4293  16.4805  16.7634  17.7912  18.7547  19.4952

          k = 0.2534-0.4333 0.0000 (  8400 PWs)   bands (ev):

   -64.2929 -64.2906 -64.2902 -64.2846 -31.2056 -31.1964 -31.1590 -31.1549
   -31.0786 -31.0716 -31.0544 -31.0402 -31.0274 -31.0178 -31.0150 -30.9939
    -7.9961  -7.8486  -7.4265  -7.0423   4.8070   5.1343   5.3803   5.7794
     5.8272   6.2115   6.3876   6.8929   7.5244   7.6932   7.8425   8.0412
    15.3632  17.0839  17.0993  18.4436  19.7267  20.2976

          k = 0.2534-0.4333 0.2014 (  8394 PWs)   bands (ev):

   -64.2927 -64.2905 -64.2901 -64.2852 -31.2060 -31.1984 -31.1583 -31.1551
   -31.0767 -31.0745 -31.0631 -31.0436 -31.0207 -31.0127 -31.0125 -30.9956
    -7.8923  -7.7834  -7.4390  -7.1165   4.3619   4.6997   5.0661   5.8531
     6.0341   6.3377   6.7546   7.2413   7.3416   7.7683   7.9349   7.9361
    15.3980  16.9119  17.1893  18.5548  19.2758  19.4197

          k = 0.2534-0.4333 0.4029 (  8378 PWs)   bands (ev):

   -64.2920 -64.2911 -64.2885 -64.2867 -31.2057 -31.2027 -31.1569 -31.1558
   -31.0812 -31.0760 -31.0644 -31.0527 -31.0109 -31.0077 -31.0070 -31.0005
    -7.6349  -7.6301  -7.5014  -7.3312   3.9814   4.1223   4.9344   5.2549
     6.4303   6.9168   7.0312   7.3803   7.5896   7.6808   7.8322   7.8422
    15.6860  16.3067  17.5954  18.2496  19.1186  19.3779

          k = 0.2289-0.2289 0.0000 (  8386 PWs)   bands (ev):

   -64.2965 -64.2877 -64.2871 -64.2871 -31.1995 -31.1995 -31.1649 -31.1512
   -31.0918 -31.0584 -31.0584 -31.0362 -31.0240 -31.0166 -31.0166 -30.9935
    -8.4706  -7.3768  -7.3766  -7.1683   4.7304   4.7979   4.7980   6.0125
     6.7047   6.7049   7.0946   7.2309   7.2310   7.5932   7.6580   8.1099
    14.0501  16.0422  18.2786  18.2787  18.6265  18.6265

          k = 0.2289-0.2289 0.2014 (  8369 PWs)   bands (ev):

   -64.2957 -64.2886 -64.2871 -64.2871 -31.1990 -31.1990 -31.1650 -31.1535
   -31.0858 -31.0629 -31.0629 -31.0412 -31.0211 -31.0134 -31.0133 -30.9964
    -8.3422  -7.3512  -7.3510  -7.2852   4.7088   4.7088   4.8095   6.1386
     6.4904   6.4906   6.9277   7.2782   7.4007   7.4008   7.4106   8.3312
    14.4375  16.1929  18.4311  18.4311  18.8529  18.8529

          k = 0.2289-0.2289 0.4029 (  8386 PWs)   bands (ev):

   -64.2935 -64.2908 -64.2871 -64.2870 -31.1981 -31.1981 -31.1633 -31.1587
   -31.0713 -31.0691 -31.0691 -31.0545 -31.0134 -31.0090 -31.0090 -31.0040
    -8.0078  -7.6021  -7.3093  -7.3091   4.5294   4.5294   5.1697   5.9230
     6.3963   6.3964   6.4891   6.9709   7.4483   7.4484   7.7100   8.1566
    15.3372  16.1164  18.9527  18.9528  19.0795  19.0796

          k = 0.3597 0.3597 0.0000 (  8398 PWs)   bands (ev):

   -64.2982 -64.2948 -64.2826 -64.2826 -31.2489 -31.2489 -31.1111 -31.1056
   -31.0786 -31.0574 -31.0543 -31.0543 -31.0371 -31.0255 -30.9980 -30.9980
    -8.1415  -7.6402  -7.1765  -7.1763   4.5619   4.9021   4.9022   5.0567
     5.4112   6.6292   6.8267   6.8269   7.0198   7.0200   8.9488   9.2028
    16.4320  17.3620  17.3620  17.9375  19.6122  20.1002

          k = 0.3597 0.3597 0.2014 (  8383 PWs)   bands (ev):

   -64.2979 -64.2952 -64.2826 -64.2826 -31.2502 -31.2502 -31.1105 -31.1061
   -31.0864 -31.0706 -31.0535 -31.0535 -31.0269 -31.0161 -30.9980 -30.9980
    -8.0672  -7.6576  -7.1507  -7.1505   3.8824   4.3824   4.6357   4.6358
     6.3099   6.8537   6.8539   7.2533   7.2605   7.2606   8.9708   9.1763
    16.3486  16.5812  16.5812  17.9260  19.5521  19.8895

          k = 0.3597 0.3597 0.4029 (  8381 PWs)   bands (ev):

   -64.2970 -64.2960 -64.2826 -64.2826 -31.2523 -31.2523 -31.1092 -31.1075
   -31.0931 -31.0873 -31.0522 -31.0522 -31.0130 -31.0086 -30.9981 -30.9981
    -7.8954  -7.7364  -7.1085  -7.1083   3.4181   3.6156   4.2846   4.2847
     6.8910   6.8912   7.3406   7.5797   7.5798   7.7355   9.0306   9.1091
    15.7995  15.7995  16.4947  17.2876  19.0960  19.4596

          k = 0.4578-0.4578 0.0000 (  8396 PWs)   bands (ev):

   -64.2951 -64.2951 -64.2857 -64.2824 -31.2383 -31.2334 -31.1218 -31.1218
   -31.0665 -31.0665 -31.0664 -31.0452 -31.0304 -31.0304 -31.0044 -30.9928
    -7.8001  -7.7999  -7.5620  -7.0093   4.7193   4.7194   5.1330   5.4049
     6.0377   6.0925   6.0926   6.6938   7.3280   7.4461   8.6986   8.6988
    16.2288  17.3305  17.5949  17.5950  20.0149  20.0221

          k = 0.4578-0.4578 0.2014 (  8392 PWs)   bands (ev):

   -64.2951 -64.2951 -64.2854 -64.2827 -31.2394 -31.2353 -31.1217 -31.1217
   -31.0770 -31.0770 -31.0634 -31.0464 -31.0207 -31.0207 -31.0033 -30.9939
    -7.7690  -7.7687  -7.4885  -7.0381   4.1047   4.1047   4.7190   5.0638
     6.6012   6.7518   6.7940   6.7941   7.2651   7.6555   8.6820   8.6823
    15.7888  16.7005  17.4544  17.4545  19.7122  19.7122

          k = 0.4578-0.4578 0.4029 (  8362 PWs)   bands (ev):

   -64.2951 -64.2951 -64.2846 -64.2835 -31.2406 -31.2390 -31.1214 -31.1214
   -31.0889 -31.0889 -31.0567 -31.0502 -31.0101 -31.0101 -31.0003 -30.9967
    -7.7177  -7.7174  -7.3141  -7.1399   3.5058   3.5058   4.4038   4.5589
     6.9062   7.1024   7.3509   7.5745   7.5746   7.7573   8.6213   8.6215
    15.4017  15.7766  17.1817  17.1817  19.4034  19.4034

     the Fermi energy is    10.0547 ev

!    total energy              =    -608.36433075 Ry
     estimated scf accuracy    <       0.00000004 Ry
     smearing contrib. (-TS)   =      -0.00000000 Ry
     internal energy E=F+TS    =    -608.36433075 Ry

     The total energy is F=E-TS. E is the sum of the following terms:
     one-electron contribution =    -292.56500887 Ry
     hartree contribution      =     164.09139500 Ry
     xc contribution           =     -97.98834463 Ry
     ewald contribution        =    -381.79231419 Ry
     DFT-D3 Dispersion         =      -0.11005807 Ry

     convergence has been achieved in   8 iterations

     Forces acting on atoms (cartesian axes, Ry/au):

     atom    1 type  1   force =     0.00000000    0.00000000    0.00000000
     atom    2 type  1   force =     0.00000000    0.00000000    0.00000000
     atom    3 type  1   force =     0.00000000    0.00000000    0.00000000
     atom    4 type  1   force =     0.00000000    0.00000000    0.00000000
     atom    5 type  2   force =     0.00000000    0.00000000    0.00000000
     atom    6 type  2   force =     0.00000000    0.00000000    0.00000000
     atom    7 type  2   force =     0.00000000    0.00000000    0.00000000
     atom    8 type  2   force =     0.00000000    0.00000000    0.00000000

     Total force =     0.000000     Total SCF correction =     0.000000

     BFGS Geometry Optimization

     bfgs converged in   1 scf cycles and   0 bfgs steps
     (criteria: energy <  1.0E-04 Ry, force <  1.0E-03 Ry/Bohr)

     End of BFGS Geometry Optimization

     Final energy   =    -608.3643307499 Ry
Begin final coordinates

ATOMIC_POSITIONS (angstrom)
Mg            0.0000000000        0.0000000000        0.0000000000
Mg            0.2526600000        2.1055000000        2.1055000000
Mg            2.1055000000        0.2526600000        2.1055000000
Mg            2.3581600000        2.3581600000        0.0000000000
O             2.3581600000        2.3581600000        2.1055000000
O             2.1055000000        0.2526600000        0.0000000000
O             0.2526600000        2.1055000000        0.0000000000
O             0.0000000000        0.0000000000        2.1055000000
End final coordinates


 
     init_run     :      0.71s CPU      0.74s WALL (       1 calls)
     electrons    :     21.30s CPU     21.76s WALL (       1 calls)
     forces       :      4.75s CPU      4.77s WALL (       1 calls)

     Called by init_run:
     wfcinit      :      0.52s CPU      0.54s WALL (       1 calls)
     potinit      :      0.06s CPU      0.06s WALL (       1 calls)
     hinit0       :      0.09s CPU      0.09s WALL (       1 calls)

     Called by electrons:
     c_bands      :     14.47s CPU     14.84s WALL (       8 calls)
     sum_band     :      2.68s CPU      2.74s WALL (       8 calls)
     v_of_rho     :      0.09s CPU      0.10s WALL (       9 calls)
     mix_rho      :      0.01s CPU      0.01s WALL (       8 calls)

     Called by c_bands:
     init_us_2    :      0.16s CPU      0.17s WALL (     486 calls)
     cegterg      :     13.97s CPU     14.30s WALL (     216 calls)

     Called by *egterg:
     cdiaghg      :      1.54s CPU      1.55s WALL (     856 calls)
     h_psi        :     11.72s CPU     12.04s WALL (     883 calls)
     g_psi        :      0.03s CPU      0.03s WALL (     640 calls)

     Called by h_psi:
     h_psi:calbec :      0.40s CPU      0.41s WALL (     883 calls)
     vloc_psi     :     11.01s CPU     11.31s WALL (     883 calls)
     add_vuspsi   :      0.27s CPU      0.28s WALL (     883 calls)

     General routines
     calbec       :      0.51s CPU      0.52s WALL (     991 calls)
     fft          :      0.11s CPU      0.11s WALL (     100 calls)
     ffts         :      0.00s CPU      0.00s WALL (       8 calls)
     fftw         :     12.88s CPU     13.22s WALL (   49908 calls)
 
     Parallel routines
     fft_scatt_xy :      1.43s CPU      1.47s WALL (   50016 calls)
     fft_scatt_yz :      7.83s CPU      8.05s WALL (   50016 calls)
 
     PWSCF        :     26.92s CPU     27.45s WALL

 
   This run was terminated on:  13:34:46   4Feb2024            

=------------------------------------------------------------------------------=
   JOB DONE.
=------------------------------------------------------------------------------=
