# total energy = -20636.60198 eV	

CRYSTAL	
PRIMVEC	
		4.39004982		0.00000000		0.00000000	
		0.00000000		10.17999872		0.00000000	
		0.00000000		0.00000000		5.97599921	
PRIMCOORD
   28 1	
Si		1.87059979		0.95590218		1.49399980		-0.00045844		 0.00053537		0.00000000	
Si		2.51945003		9.22409742		4.48199985		 0.00045844		-0.00053537		0.00000000	
Si		4.06562470		4.13409762		4.48199985		-0.00045844		-0.00053537		-0.00000000	
Si		0.32442512		6.04590154		1.49399980		 0.00045844		 0.00053537		-0.00000000	
Mg		0.00000000		0.00000000		0.00000000		0.00000000		0.00000000		0.00000000	
Mg		2.19502491		5.08999980		0.00000000		0.00000000		0.00000000		0.00000000	
Mg		0.00000000		0.00000000		2.98800005		0.00000000		0.00000000		0.00000000	
Mg		2.19502491		5.08999980		2.98800005		0.00000000		0.00000000		0.00000000	
Mg		4.35229495		2.82189593		1.49399980		 0.00027981		 0.00066913		-0.00000000	
Mg		0.03775399		7.35810367		4.48199985		-0.00027981		-0.00066913		0.00000000	
Mg		2.15727004		2.26810387		4.48199985		 0.00027981		-0.00066913		0.00000000	
Mg		2.23277890		7.91189573		1.49399980		-0.00027981		 0.00066913		0.00000000	
O		3.36321673		0.93554201		1.49399980		-0.00091372		-0.00027089		0.00000000	
O		1.02683309		9.24445759		4.48199985		 0.00091372		 0.00027089		0.00000000	
O		1.16819182		4.15445779		4.48199985		-0.00091372		 0.00027089		0.00000000	
O		3.22185800		6.02554181		1.49399980		 0.00091372		-0.00027089		0.00000000	
O		0.96668897		4.54944199		1.49399980		 0.00022186		 0.00028055		0.00000000	
O		3.42336085		5.63055761		4.48199985		-0.00022186		-0.00028055		-0.00000000	
O		3.16171388		0.54055781		4.48199985		 0.00022186		-0.00028055		0.00000000	
O		1.22833594		9.63944179		1.49399980		-0.00022186		 0.00028055		0.00000000	
O		1.21911683		1.65730395		0.19900096		-0.00009141		 0.00048883		-0.00031085	
O		3.17093298		8.52269565		5.77699870		 0.00009141		-0.00048883		 0.00031085	
O		3.41414174		3.43269585		5.77699870		-0.00009141		-0.00048883		 0.00031085	
O		0.97590807		6.74730375		0.19900096		 0.00009141		 0.00048883		-0.00031085	
O		3.17093298		8.52269565		3.18700100		 0.00009141		-0.00048883		-0.00031085	
O		1.21911683		1.65730395		2.78899909		-0.00009141		 0.00048883		 0.00031085	
O		0.97590807		6.74730375		2.78899909		 0.00009141		 0.00048883		 0.00031085	
O		3.41414174		3.43269585		3.18700100		-0.00009141		-0.00048883		-0.00031085	
