# total energy = -20634.7196278 eV

CRYSTAL
PRIMVEC
		10.04999687		0.00000000		0.80399773
		0.00000000		5.74999781		0.00000000
		0.38960291		0.00000000		4.87000114
PRIMECORD
   28 1
Si		3.69678349		0.00000000		4.64440086		 0.00029229		-0.00000000		-0.00042727
Si		6.74281629		0.00000000		1.02959902		-0.00029229		-0.00000000		 0.00042727
Si		8.72178394		2.87499991		5.04640073		 0.00031629		-0.00000000		-0.00041372
Si		1.71781584		2.87499991		0.62759915		-0.00031629		-0.00000000		 0.00041372
Mg		0.00000000		0.00000000		0.00000000		0.00000000		0.00000000		0.00000000
Mg		5.02499944		2.87499991		0.40199987		0.00000000		0.00000000		0.00000000
Mg		5.21979989		0.00000000		2.83699944		0.00000000		0.00000000		0.00000000
Mg		0.19480045		2.87499991		2.43499956		0.00000000		0.00000000		0.00000000
Mg		2.70730017		1.43749996		2.63599950		-0.00001002		 0.00000086		-0.00000334
Mg		7.73229961		4.31249987		3.03800038		 0.00001002		-0.00000086		 0.00000334
Mg		7.73229961		1.43749996		3.03800038		 0.00001002		 0.00000086		 0.00000334
Mg		2.70730017		4.31249987		2.63599950		-0.00001002		-0.00000086		-0.00000334
O		8.32146072		0.00000000		1.73993800		 0.00015551		0.00000000		 0.00009202
O		2.11813906		0.00000000		3.93406188		-0.00015551		0.00000000		-0.00009202
O		3.29646128		2.87499991		1.33793813		 0.00013883		-0.00000000		 0.00008467
O		7.14313850		2.87499991		4.33606176		-0.00013883		-0.00000000		-0.00008467
O		3.44937763		0.00000000		1.41452686		-0.00057444		0.00000000		-0.00016923
O		6.99022216		0.00000000		4.25947201		 0.00057444		0.00000000		 0.00016923
O		8.47437808		2.87499991		1.81652674		-0.00055221		0.00000000		-0.00016797
O		1.96522171		2.87499991		3.85747214		 0.00055221		0.00000000		 0.00016797
O		1.00031655		1.55422456		1.17021419		 0.00090664		-0.00031489		 0.00029639
O		9.43928223		4.19577527		4.50378569		-0.00090664		 0.00031489		-0.00029639
O		9.43928223		1.55422456		4.50378569		-0.00090664		-0.00031489		-0.00029639
O		1.00031655		4.19577527		1.17021419		 0.00090664		 0.00031489		 0.00029639
O		6.02531700		4.42922447		1.57221406		 0.00092153		-0.00031302		 0.00030495
O		4.41428279		1.32077535		4.10178582		-0.00092153		 0.00031302		-0.00030495
O		4.41428279		4.42922447		4.10178582		-0.00092153		-0.00031302		-0.00030495
O		6.02531700		1.32077535		1.57221406		 0.00092153		 0.00031302		 0.00030495
