# total energy = -21542.7394155 eV

CRYSTAL
PRIMVEC
		5.28577905		-0.00044071		-0.00060662
		-0.00045626		9.11669288		0.04472408
		-0.15099174		-0.06904080		9.15083997
PRIMECORD
   42 1
Mg		0.00000000		-0.00001037		0.00000000		 0.00000913		 0.00002683		 0.00001346
Mg		2.64264480		4.55813231		0.02206392		-0.00000201		-0.00002720		-0.00000683
Mg		2.64305077		1.51526347		0.00686675		-0.00015576		-0.00009909		-0.00013385
Mg		2.64226165		7.60097730		0.03724397		 0.00014943		 0.00012839		 0.00015593
Mg		-0.00006792		6.07383545		0.02952588		-0.00015027		-0.00010227		-0.00014954
Mg		-0.00041427		3.04285588		0.01519146		 0.00015816		 0.00007613		 0.00013776
Si		4.40530411		1.50335865		2.73684121		 0.00003716		-0.00007961		-0.00004367
Si		0.72901657		7.54376147		6.45811830		 0.00000500		 0.00037558		 0.00003576
Si		1.76219682		6.06195137		2.75948219		 0.00000051		-0.00015912		 0.00002945
Si		3.37214770		2.98535282		6.43547161		-0.00004513		-0.00013692		-0.00002392
Si		1.76279359		3.02704327		2.74442450		 0.00007007		-0.00016945		-0.00000900
Si		3.37152501		6.02028424		6.45053086		-0.00002819		-0.00020728		 0.00001504
Si		4.40546899		7.58498634		2.76649878		 0.00002338		 0.00042166		-0.00007179
Si		0.72887813		1.46210994		6.42846021		-0.00006763		-0.00004679		 0.00006339
O		1.76189662		3.03655946		1.11446755		-0.00024474		 0.00013979		-0.00007363
O		3.37240953		6.01063429		8.08050285		 0.00024626		-0.00010734		 0.00002208
O		4.40455802		7.59471147		1.13651073		-0.00024174		 0.00007704		-0.00002333
O		0.72976473		1.45250354		8.05843219		 0.00024430		-0.00011079		 0.00007355
O		4.40306583		1.50958197		1.10681738		 0.00019251		-0.00000707		-0.00004506
O		0.73125484		7.53762786		8.08815509		-0.00018994		-0.00000825		-0.00000185
O		1.75995129		6.06815654		1.12946821		 0.00019042		-0.00001851		-0.00000482
O		3.37435591		2.97904447		8.06547263		-0.00018833		 0.00003721		 0.00005131
O		1.76015038		-0.00557522		1.06486716		 0.00008142		 0.00014695		-0.00020921
O		3.37463122		-0.06390007		8.08551759		-0.00008179		-0.00018200		-0.00035485
O		4.40280970		4.55254621		1.08685694		 0.00008464		 0.00018045		 0.00001504
O		0.73151305		4.49464340		8.10799629		-0.00008508		-0.00014449		 0.00033734
O		1.54953655		4.54146058		3.32043192		-0.00010744		 0.00016203		 0.00034581
O		3.58478775		4.50558644		5.87451567		 0.00010555		 0.00036600		-0.00033572
O		4.19265576		-0.01694341		3.29778575		-0.00009954		-0.00036739		 0.00029590
O		0.94213673		-0.05237529		5.85245435		 0.00010155		-0.00016277		-0.00030422
O		3.19356505		2.45126451		3.28287634		-0.00001326		 0.00001813		-0.00006944
O		1.94077533		6.59593650		5.91209199		-0.00002535		 0.00000632		 0.00002344
O		0.55037377		7.00988367		3.30553287		 0.00022653		-0.00014523		-0.00003423
O		4.58394639		2.03733290		5.88941160		-0.00018972		 0.00012196		 0.00008219
O		0.55096743		2.07327082		3.28012684		 0.00011450		 0.00017685		-0.00009587
O		4.58335947		6.97393486		5.91484512		-0.00009627		-0.00015338		 0.00005001
O		3.19369726		6.63144616		3.30216638		-0.00010931		 0.00001312		-0.00004133
O		1.94063845		2.41577196		5.89277342		 0.00008971		-0.00003668		 0.00008918
H		1.75349466		-0.00681335		2.02785560		-0.00002253		-0.00015630		 0.00011628
H		3.38085817		9.05402472		7.16696081		 0.00001660		 0.00017284		 0.00040723
H		4.39616538		4.55133659		2.04996203		-0.00002089		-0.00017411		-0.00009494
H		0.73827040		4.49591160		7.14507421		 0.00001809		 0.00015473		-0.00023305
