# total energy = -21541.1962674 eV

CRYSTAL
PRIMVEC
		5.16364590		0.00020739		0.02282349
		0.00185616		8.88902313		0.04182578
		-0.10747053		-0.07230203		8.68060455
PRIMECORD
   42 1
Mg		0.00000000		0.00000000		0.00000000		-0.00000101		-0.00000854		 0.00000112
Mg		2.58275207		4.44461267		0.03232308		 0.00000171		 0.00000848		-0.00000003
Mg		2.58246535		1.47188225		0.01607132		-0.00009745		 0.00017128		 0.00008692
Mg		2.58303879		7.41735035		0.04857380		 0.00009953		-0.00018005		-0.00008654
Mg		0.00157151		5.91629323		0.02557351		-0.00010017		 0.00016734		 0.00008610
Mg		0.00028620		2.97273042		0.01625072		 0.00009738		-0.00015836		-0.00008423
Si		4.29569381		1.46105172		2.72806334		-0.00004622		-0.00031471		-0.00033767
Si		0.76235949		7.35591099		6.01718477		-0.00001067		 0.00020957		 0.00033709
Si		1.71478909		5.90546218		2.73756501		-0.00001574		-0.00031684		-0.00034225
Si		3.34322481		2.91143624		6.00768207		 0.00007237		 0.00042094		 0.00034327
Si		1.71483523		2.95970672		2.72262708		-0.00011054		-0.00008846		-0.00026553
Si		3.34321807		5.85720310		6.02261740		 0.00005773		 0.00015879		 0.00027672
Si		4.29758160		7.40436709		2.75495379		-0.00009005		-0.00024394		-0.00027285
Si		0.76043334		1.41258421		5.99029795		 0.00014277		 0.00017218		 0.00025957
O		1.71410677		2.97040193		1.10555281		-0.00000317		-0.00028329		-0.00013503
O		3.34392735		5.84653019		7.63969323		 0.00000311		 0.00027585		 0.00014526
O		4.29685884		7.41501149		1.13787226		-0.00000149		-0.00026687		-0.00012849
O		0.76117477		1.40191752		7.60737741		 0.00000177		 0.00027378		 0.00011901
O		4.29259745		1.46463805		1.11069042		 0.00027022		 0.00012185		-0.00028234
O		0.76543616		7.35229044		7.63455614		-0.00027062		-0.00011351		 0.00029047
O		1.71170413		5.90904592		1.12019468		 0.00026816		 0.00012497		-0.00029706
O		3.34632947		2.90788672		7.62505447		-0.00026749		-0.00013307		 0.00028878
O		1.71635230		-0.00316999		1.09075694		 0.00022638		-0.00011123		-0.00032244
O		3.33982359		-0.06892777		7.61266073		-0.00022686		 0.00012255		 0.00034481
O		4.29910385		4.44144839		1.12310024		 0.00022867		-0.00012190		-0.00040417
O		0.75892975		4.37548633		7.62216498		-0.00022774		 0.00011031		 0.00034138
O		1.32136025		4.42933307		3.30610476		-0.00024544		-0.00032059		 0.00032054
O		3.73667439		4.38764416		5.43914336		 0.00024458		 0.00016958		-0.00031891
O		3.90225927		-0.01511473		3.29659739		-0.00025247		-0.00019768		 0.00034110
O		1.15391766		-0.05702813		5.40682650		 0.00025325		 0.00035192		-0.00034224
O		3.21229462		2.56610834		3.22921729		 0.00000798		-0.00022398		 0.00027078
O		1.84573173		6.25082585		5.51602824		 0.00001318		 0.00021527		-0.00025720
O		0.63141893		7.01050221		3.23871895		-0.00005642		-0.00017354		 0.00026720
O		4.42662193		1.80642369		5.50653227		 0.00003535		 0.00018191		-0.00028046
O		0.63119028		1.84886127		3.21035965		-0.00021412		-0.00022646		 0.00045573
O		4.42682414		6.96805789		5.53488535		 0.00027079		 0.00025759		-0.00044204
O		3.21393146		6.29346305		3.24268584		-0.00017362		-0.00018402		 0.00043521
O		1.84412081		2.52348047		5.50256487		 0.00011717		 0.00015275		-0.00044846
H		1.69621195		0.00189712		2.05250414		 0.00032254		-0.00046379		 0.00044056
H		3.36182062		8.81503656		6.69274968		-0.00032192		 0.00045783		-0.00046232
H		4.27896609		4.44650927		2.08480700		 0.00032117		-0.00045849		 0.00051504
H		0.77906803		4.37041922		6.66042556		-0.00032260		 0.00046456		-0.00045638
