# total energy = -21542.2176852 eV

CRYSTAL
PRIMVEC
		5.41381768		-0.00000518		-0.01966076
		0.00060144		9.37868601		0.00411673
		-0.11435595		-0.05366268		11.92864318
PRIMECORD
   42 1
Mg		0.00017369		0.00000000		0.00007311		-0.00005461		 0.00001358		-0.00002997
Mg		2.70703639		4.68932952		-0.00784927		 0.00007964		-0.00000938		 0.00004643
Mg		2.70717793		1.56007829		-0.01006577		-0.00004734		-0.00013547		 0.00009041
Mg		2.70738895		7.81870104		-0.00562343		 0.00000028		 0.00012567		-0.00006680
Mg		0.00034842		6.24928804		0.00199926		 0.00002116		-0.00009437		 0.00007894
Mg		-0.00000726		3.12924501		0.00226576		 0.00005797		 0.00013966		-0.00005289
Si		4.52252570		1.55827709		2.72015963		 0.00004893		 0.00031711		-0.00016675
Si		0.77758725		7.76671098		9.19297892		-0.00005829		-0.00021104		 0.00023841
Si		1.81589165		6.24768905		2.73183477		 0.00005710		 0.00014218		 0.00022206
Si		3.48419278		3.07736176		9.18095485		-0.00005912		-0.00024198		 0.00037546
Si		1.81546909		3.11918391		2.73051575		 0.00030134		 0.00016108		-0.00009070
Si		3.48463712		6.20582179		9.18253310		-0.00030748		 0.00002446		 0.00014325
Si		4.52269316		7.80855232		2.72266182		 0.00029440		-0.00001407		 0.00017143
Si		0.77740838		1.51651975		9.19020142		-0.00030519		-0.00017745		 0.00044787
O		1.81114756		3.11918650		1.09420950		-0.00013696		 0.00013450		 0.00012243
O		3.48887466		6.20585134		10.81889172		 0.00017074		-0.00015023		-0.00017981
O		4.51843955		7.80850980		1.08651785		-0.00017883		 0.00016131		-0.00005009
O		0.78168998		1.51651145		10.82677365		 0.00015470		-0.00012793		-0.00043151
O		4.51729942		1.56490845		1.08375435		 0.00016836		-0.00004562		 0.00011910
O		0.78282494		7.76011332		10.82940338		-0.00019165		 0.00001367		-0.00014373
O		1.81060730		6.25423641		1.09574731		 0.00020882		-0.00000692		-0.00021651
O		3.48939780		3.07073195		10.81749753		-0.00016906		 0.00005504		-0.00028649
O		1.80525814		-0.00081661		1.02932588		-0.00000618		-0.00002768		-0.00017399
O		3.49424196		-0.05276882		10.87946885		 0.00007323		 0.00000198		 0.00063941
O		4.51257088		4.68855336		1.02178251		-0.00013842		-0.00004496		-0.00084888
O		0.78767013		4.63655967		10.89168061		-0.00001392		 0.00000437		-0.00016821
O		1.83294912		4.68316635		3.26686878		 0.00012413		 0.00020244		-0.00005578
O		3.46712701		4.64186838		8.64628065		-0.00010121		-0.00020392		-0.00003015
O		4.53949606		-0.00614762		3.25496863		 0.00012130		 0.00010417		-0.00001152
O		0.75989205		-0.04751091		8.65405734		-0.00010600		-0.00012449		-0.00001671
O		3.16265379		2.32414358		3.26601174		 0.00009467		-0.00001305		-0.00001088
O		2.13736791		7.00089426		8.64711593		 0.00005495		-0.00006658		-0.00001121
O		0.45609959		7.01344251		3.27792382		-0.00004697		 0.00009108		-0.00004495
O		4.84403462		2.31151185		8.63514785		-0.00008461		 0.00002311		-0.00003028
O		0.45667199		2.35152244		3.27668776		-0.00008284		 0.00013575		-0.00033734
O		4.84352184		6.97354496		8.63635332		-0.00009299		-0.00025382		 0.00036417
O		3.16381363		7.04081670		3.26895204		 0.00006442		 0.00024361		-0.00041302
O		2.13623451		2.28415892		8.64418185		 0.00005143		-0.00015860		 0.00029218
H		1.80849138		-0.00098356		1.99274465		-0.00050301		 0.00002303		 0.00040522
H		3.49203479		9.32617798		9.92039701		 0.00049034		-0.00003145		-0.00081651
H		4.51486308		4.68806443		1.98486324		-0.00046206		 0.00003961		 0.00101922
H		0.78439334		4.63670225		9.92809021		 0.00050887		-0.00001839		-0.00009133
