# total energy = -35726.9558129 eV	

CRYSTAL	
PRIMVEC	
		7.71251035		-0.00000786		0.00000000	
		-3.85626303		6.67921893		-0.00000786	
		0.00000000		-0.00001572		9.65824894	
PRIMCOORD
   46 1	
Mg		1.25040076		3.13627059		3.62713844		-0.00015618		-0.00070809		-0.00054142	
Mg		0.51495260		6.19394446		3.62713294		 0.00069401		 0.00021639		-0.00054259	
Mg		-1.76536200		4.02819294		3.62714552		-0.00053297		 0.00049875		-0.00054873	
Mg		2.60584970		3.54292083		8.45625426		 0.00015357		 0.00070811		-0.00053783	
Mg		3.34129707		0.48524774		8.45625898		-0.00069309		-0.00021591		-0.00054356	
Mg		5.62161010		2.65100162		8.45627077		 0.00053514		-0.00049437		-0.00054365	
Mg		0.63278950		1.65459309		1.11458421		 0.00017924		 0.00011383		 0.00043343	
Mg		2.10694233		6.39992047		1.11457949		-0.00018474		 0.00009899		 0.00043487	
Mg		-2.73972947		5.30391565		1.11456927		 0.00000554		-0.00021015		 0.00043916	
Mg		3.22346017		5.02461169		5.94370082		-0.00017858		-0.00011062		 0.00043330	
Mg		1.74930655		0.27929138		5.94370475		 0.00018704		-0.00009808		 0.00043576	
Mg		6.59596892		1.37528677		5.94369846		-0.00000403		 0.00020592		 0.00043873	
Mg		-0.00001022		4.45281969		0.99872496		 0.00000509		-0.00000475		-0.00040965	
Mg		3.85624810		2.22639766		5.82785336		-0.00000562		-0.00000532		-0.00040742	
Si		3.85625360		2.22639059		1.61945676		-0.00000868		 0.00001037		-0.00026084	
Si		-0.00001415		4.45280869		6.44856394		 0.00000728		-0.00000392		-0.00025960	
Si		0.00000000		0.00000000		3.83050562		-0.00000075		-0.00000090		-0.00005661	
Si		0.00000000		-0.00001022		8.65962616		 0.00000073		 0.00000134		-0.00005377	
O		1.47035238		0.20622833		9.38418544		 0.00015655		-0.00018936		 0.00015390	
O		6.79873007		1.17022334		9.38419408		 0.00008360		 0.00022992		 0.00015292	
O		3.29968150		5.30272325		9.38417050		-0.00024079		-0.00004226		 0.00015561	
O		2.38590044		6.47296781		4.55505547		-0.00015686		 0.00018885		 0.00015237	
O		-2.94247254		5.50897908		4.55505154		-0.00008475		-0.00023149		 0.00015550	
O		0.55656817		1.37647682		4.55506176		 0.00024042		 0.00004156		 0.00015479	
O		3.33338254		0.62059267		4.83884216		 0.00044579		-0.00036987		 0.00011348	
O		5.50833454		2.57646318		4.83883744		 0.00010136		 0.00057119		 0.00011190	
O		2.72702958		3.48210648		4.83884216		-0.00054496		-0.00019843		 0.00011057	
O		0.52288050		6.05858617		9.66794068		-0.00044574		 0.00037483		 0.00011190	
O		-1.65208958		4.10274788		9.66794619		-0.00010183		-0.00057401		 0.00011015	
O		1.12920751		3.19708887		9.66795562		 0.00054719		 0.00019834		 0.00011162	
O		2.31222978		2.06278710		2.17260099		-0.00017895		-0.00027344		 0.00000584	
O		4.76994191		0.97103313		2.17259077		 0.00033625		-0.00002936		 0.00001066	
O		4.48657889		3.64535626		2.17260020		-0.00014638		 0.00029479		 0.00000354	
O		1.54401125		4.61639646		7.00171445		 0.00017848		 0.00027563		 0.00000440	
O		-0.91370718		5.70816929		7.00169480		-0.00032969		 0.00002353		 0.00000873	
O		-0.63034259		3.03384223		7.00170187		 0.00014683		-0.00029331		 0.00000714	
O		-0.40621950		2.98584567		2.39828906		-0.00020296		 0.00008360		 0.00049315	
O		1.47353423		4.83449069		2.39826940		 0.00002993		-0.00021552		 0.00049622	
O		-1.06731473		5.53808341		2.39827098		 0.00016900		 0.00013219		 0.00049753	
O		4.26247389		3.69335518		7.22740881		 0.00020177		-0.00008224		 0.00049459	
O		2.38272566		1.84471094		7.22741038		-0.00003031		 0.00021307		 0.00049420	
O		4.92358326		1.14112058		7.22741667		-0.00017355		-0.00013275		 0.00049276	
O		3.85625282		2.22639766		-0.03166207		-0.00000008		 0.00000162		-0.00068171	
O		0.00000000		4.45280083		4.79744510		 0.00000009		 0.00000114		-0.00067963	
O		0.00000865		0.00000000		2.20170532		-0.00000189		-0.00000018		-0.00057508	
O		0.00000000		0.00000000		7.03082821		-0.00000153		 0.00000044		-0.00057663	
