# total energy = -35725.5040543 eV	

CRYSTAL	
PRIMVEC	
		8.06396793		0.00000000		0.00000000	
		-4.03198003		6.98360117		0.00000000	
		0.00000000		0.00000000		10.00867682	
PRIMCOORD
   46 1	
Mg		1.32670226		3.29026722		3.78709947		-0.00025141		-0.00010393		 0.00011115	
Mg		0.51917830		6.48742526		3.78709947		 0.00021572		-0.00016576		 0.00011115	
Mg		-1.84588055		4.18950909		3.78709947		 0.00003570		 0.00026969		 0.00011115	
Mg		2.70528092		3.69333396		8.79143709		 0.00025141		 0.00010393		 0.00011115	
Mg		3.51280488		0.49617513		8.79143709		-0.00021572		 0.00016576		 0.00011115	
Mg		5.87786295		2.79409052		8.79143709		-0.00003570		-0.00026969		 0.00011115	
Mg		0.76509642		1.71500656		1.10749422		-0.00002841		 0.00060742		 0.00003200	
Mg		2.16419597		6.78869011		1.10749422		-0.00051184		-0.00032832		 0.00003200	
Mg		-2.92929239		5.46350489		1.10749422		 0.00054025		-0.00027911		 0.00003200	
Mg		3.26688676		5.26859461		6.11183106		 0.00002841		-0.00060742		 0.00003200	
Mg		1.86778642		0.19491028		6.11183106		 0.00051184		 0.00032832		 0.00003200	
Mg		6.96127478		1.52009629		6.11183106		-0.00054025		 0.00027911		 0.00003200	
Mg		0.00000000		4.65573333		0.94754812		0.00000000		-0.00000000		 0.00044752	
Mg		4.03198318		2.32786706		5.95188496		0.00000000		0.00000000		 0.00044752	
Si		4.03198318		2.32786706		1.66407890		-0.00000000		-0.00000000		 0.00002742	
Si		0.00000000		4.65573333		6.66841652		0.00000000		0.00000000		 0.00002742	
Si		0.00000000		0.00000000		3.98070494		-0.00000000		-0.00000000		-0.00000318	
Si		0.00000000		0.00000000		8.98504256		-0.00000000		-0.00000000		-0.00000318	
O		1.49192497		0.18209721		9.71529663		-0.00037018		 0.00002412		-0.00058697	
O		7.16030307		1.20099720		9.71529663		 0.00016420		-0.00033265		-0.00058697	
O		3.44372071		5.60050756		9.71529663		 0.00020598		 0.00030853		-0.00058697	
O		2.54005742		6.80150397		4.71095980		 0.00037018		-0.00002412		-0.00058697	
O		-3.12831989		5.78260397		4.71095980		-0.00016420		 0.00033265		-0.00058697	
O		0.58826247		1.38309441		4.71095980		-0.00020598		-0.00030853		-0.00058697	
O		3.49636428		0.61667274		5.04427345		 0.00034380		 0.00003594		 0.00051616	
O		5.78172991		2.71960396		5.04427345		-0.00020302		 0.00027976		 0.00051616	
O		2.81785456		3.64732369		5.04427345		-0.00014077		-0.00031571		 0.00051616	
O		0.53561890		6.36692765		10.04861028		-0.00034380		-0.00003594		 0.00051616	
O		-1.74974673		4.26399643		10.04861028		 0.00020302		-0.00027976		 0.00051616	
O		1.21412783		3.33627748		10.04861028		 0.00014077		 0.00031571		 0.00051616	
O		2.45540514		2.24690676		2.21363332		 0.00033394		-0.00000996		-0.00035266	
O		4.89038607		1.00299075		2.21363332		-0.00015834		 0.00029418		-0.00035266	
O		4.75015754		3.73370445		2.21363332		-0.00017559		-0.00028421		-0.00035266	
O		1.57657804		4.73669442		7.21797094		-0.00033394		 0.00000996		-0.00035266	
O		-0.85840289		5.98061043		7.21797094		 0.00015834		-0.00029418		-0.00035266	
O		-0.71817436		3.24989672		7.21797094		 0.00017559		 0.00028421		-0.00035266	
O		-0.31512885		3.24756614		2.52676172		 0.00031136		-0.00039631		-0.00027843	
O		1.37707342		5.08690771		2.52676172		 0.00018755		 0.00046780		-0.00027843	
O		-1.06194457		5.63272771		2.52676172		-0.00049890		-0.00007149		-0.00027843	
O		4.34711124		3.73603503		7.53109935		-0.00031136		 0.00039631		-0.00027843	
O		2.65490898		1.89669346		7.53109935		-0.00018755		-0.00046780		-0.00027843	
O		5.09392775		1.35087268		7.53109935		 0.00049890		 0.00007149		-0.00027843	
O		4.03198318		2.32786706		0.00640379		-0.00000000		-0.00000000		 0.00068542	
O		0.00000000		4.65573333		5.01074062		0.00000000		0.00000000		 0.00068542	
O		0.00000000		0.00000000		2.31773906		0.00000000		0.00000000		 0.00051902	
O		0.00000000		0.00000000		7.32207668		0.00000000		-0.00000000		 0.00051902	
