# total energy = -4022.71701623 eV

CRYSTAL
PRIMVEC
		3.94517949		0.63122648		0.00000000
		0.63122648		3.94517949		0.00000000
		0.00000000		0.00000000		3.94517949
PRIMECORD
   5 1
Ca		0.00000000		0.00000000		0.00000000		0.00000000		0.00000000		0.00000000
Mg		2.28820299		2.28820299		1.97258895		0.00000000		0.00000000		0.00000000
O		2.28820299		2.28820299		0.00000000		0.00000000		0.00000000		0.00000000
O		1.97258895		0.31561404		1.97258895		0.00000000		0.00000000		0.00000000
O		0.31561404		1.97258895		1.97258895		0.00000000		0.00000000		0.00000000
