# total energy = -4022.70868084 eV

CRYSTAL
PRIMVEC
		3.94517842		-0.47342046		0.00000000
		-0.47342046		3.94517842		0.00000000
		0.00000000		0.00000000		3.94517842
PRIMECORD
   5 1
Ca		0.00000000		0.00000000		0.00000000		0.00000000		0.00000000		0.00000000
Mg		1.73587779		1.73587779		1.97258881		0.00000000		0.00000000		0.00000000
O		1.73587779		1.73587779		0.00000000		0.00000000		0.00000000		0.00000000
O		1.97258881		-0.23671102		1.97258881		0.00000000		0.00000000		0.00000000
O		-0.23671102		1.97258881		1.97258881		0.00000000		0.00000000		-0.00000000
