# total energy = -4139.16779928 eV	

CRYSTAL	
PRIMVEC	
		3.30778698		0.00000000		-0.13231135	
		-1.65389184		2.86462938		0.06615567	
		-0.19931449		0.00000000		4.98288214	
PRIMCOORD
   4 1	
Mg		-0.00043003		1.90975182		0.01076188		 0.00003477		-0.00013324		 0.00031998	
Mg		1.55380490		0.95487591		2.43604695		 0.00003477		 0.00013324		 0.00031998	
O		-0.08021210		1.90975182		2.00531207		-0.00003477		-0.00025040		-0.00031998	
O		1.47402282		0.95487591		4.43059681		-0.00003477		 0.00025040		-0.00031998	
