# total energy = -20634.766447 eV	

CRYSTAL	
PRIMVEC	
		4.74600089		0.00000000		0.56951896	
		0.00000000		10.17999904		0.00000000	
		0.71712210		0.00000000		5.97599837	
PRIMCOORD
   28 1	
Si		2.20155012		0.95590181		1.73667217		 0.00020968		 0.00031016		 0.00038763	
Si		3.26156905		9.22409819		4.80884707		-0.00020968		-0.00031016		-0.00038763	
Si		4.93311018		4.13409819		5.00943227		 0.00020968		-0.00031016		 0.00038763	
Si		0.53000899		6.04590228		1.53608697		-0.00020968		 0.00031016		-0.00038763	
Mg		0.00000000		0.00000000		0.00000000		0.00000000		-0.00000000		0.00000000	
Mg		2.37299997		5.09000000		0.28475996		0.00000000		0.00000000		0.00000000	
Mg		0.35856009		0.00000000		2.98800014		0.00000000		0.00000000		0.00000000	
Mg		2.73156006		5.09000000		3.27276010		0.00000000		-0.00000000		0.00000000	
Mg		4.88446410		2.82189630		2.05862187		-0.00009024		 0.00003710		-0.00015109	
Mg		0.57865602		7.35810418		4.48689832		 0.00009024		-0.00003710		 0.00015109	
Mg		2.87002422		2.26810418		4.76186205		-0.00009024		-0.00003710		-0.00015109	
Mg		2.59309494		7.91189630		1.78365814		 0.00009024		 0.00003710		 0.00015109	
O		3.81519004		0.93554214		1.93030910		 0.00015092		-0.00000692		 0.00039489	
O		1.64792913		9.24445833		4.61521110		-0.00015092		 0.00000692		-0.00039489	
O		1.80075017		4.15445833		4.63354928		 0.00015092		 0.00000692		 0.00039489	
O		3.66236900		6.02554214		1.91197092		-0.00015092		-0.00000692		-0.00039489	
O		1.22434889		4.54944192		1.61940801		 0.00034568		-0.00015055		-0.00044812	
O		4.23877123		5.63055807		4.92611219		-0.00034568		 0.00015055		 0.00044812	
O		3.95590895		0.54055808		4.89216810		 0.00034568		 0.00015055		-0.00044812	
O		1.50721117		9.63944240		1.65335209		-0.00034568		-0.00015055		 0.00044812	
O		1.34184393		1.65730424		0.35715715		 0.00039974		 0.00012495		-0.00022995	
O		4.12127619		8.52269624		6.18836304		-0.00039974		-0.00012495		 0.00022995	
O		4.38420423		3.43269624		6.21991519		 0.00084857		 0.00051658		-0.00040156	
O		1.07891589		6.74730423		0.32560500		-0.00084857		-0.00051658		 0.00040156	
O		3.81047596		8.52269624		3.59836510		-0.00084857		 0.00051658		 0.00040156	
O		1.65264417		1.65730424		2.94715510		 0.00084857		-0.00051658		-0.00040156	
O		1.38971613		6.74730423		2.91560295		-0.00039974		 0.00012495		 0.00022995	
O		4.07340399		3.43269624		3.62991629		 0.00039974		-0.00012495		-0.00022995	
