# total energy = -10316.7736437 eV	

CRYSTAL	
PRIMVEC	
		5.35349999		0.00000000		0.00000000	
		0.00000000		8.84999932		0.00000000	
		0.00000000		0.00000000		2.75000194	
PRIMCOORD
   14 1	
Si		0.00000000		0.00000000		0.00000000		0.00000000		0.00000000		0.00000000	
Si		2.67675000		4.42500020		0.00000000		0.00000000		0.00000000		0.00000000	
Mg		0.43845218		2.94616488		1.37499990		 0.00015424		 0.00013881		0.00000000	
Mg		4.91504781		5.90383497		1.37499990		-0.00015424		-0.00013881		-0.00000000	
Mg		2.23829781		7.37116508		1.37499990		-0.00015424		 0.00013881		-0.00000000	
Mg		3.11520218		1.47883478		1.37499990		 0.00015424		-0.00013881		0.00000000	
O		1.15849686		0.39648021		1.37499990		 0.00006306		-0.00039718		-0.00000000	
O		4.19500206		8.45352125		1.37499990		-0.00006306		 0.00039718		0.00000000	
O		1.51825313		4.82147987		1.37499990		-0.00006306		-0.00039718		0.00000000	
O		3.83524793		4.02851999		1.37499990		 0.00006306		 0.00039718		0.00000000	
O		2.10124875		2.73199490		0.00000000		-0.00059892		-0.00025253		-0.00000000	
O		3.25225124		6.11800602		0.00000000		 0.00059892		 0.00025253		-0.00000000	
O		0.57550125		7.15699510		0.00000000		 0.00059892		-0.00025253		0.00000000	
O		4.77799874		1.69300476		0.00000000		-0.00059892		 0.00025253		0.00000000	
