# total energy = -10316.5849265 eV	

CRYSTAL	
PRIMVEC	
		4.73099975		0.00000000		0.00000000	
		0.00000000		8.84999737		0.00000000	
		0.00000000		0.00000000		2.74999768	
PRIMCOORD
   14 1	
Si		0.00000000		0.00000000		0.00000000		0.00000000		0.00000000		0.00000000	
Si		2.36549987		4.42499963		0.00000000		0.00000000		0.00000000		0.00000000	
Mg		0.38746888		2.94616480		1.37499979		 0.00071895		-0.00066018		0.00000000	
Mg		4.34353087		5.90383445		1.37499979		-0.00071895		 0.00066018		0.00000000	
Mg		1.97803099		7.37116443		1.37499979		-0.00071895		-0.00066018		-0.00000000	
Mg		2.75296875		1.47883482		1.37499979		 0.00071895		 0.00066018		-0.00000000	
O		1.02378787		0.39648001		1.37499979		-0.00020141		 0.00029090		0.00000000	
O		3.70721093		8.45352066		1.37499979		 0.00020141		-0.00029090		0.00000000	
O		1.34171200		4.82147964		1.37499979		 0.00020141		 0.00029090		-0.00000000	
O		3.38928869		4.02851961		1.37499979		-0.00020141		-0.00029090		-0.00000000	
O		1.85691787		2.73199481		0.00000000		 0.00040506		 0.00081579		0.00000000	
O		2.87408187		6.11800587		0.00000000		-0.00040506		-0.00081579		0.00000000	
O		0.50858200		7.15699444		0.00000000		-0.00040506		 0.00081579		0.00000000	
O		4.22241775		1.69300482		0.00000000		 0.00040506		-0.00081579		0.00000000	
