# total energy = -10314.7972404 eV	

CRYSTAL	
PRIMVEC	
		4.48199965		0.00000000		0.00000000	
		0.00000000		8.84999964		0.00000000	
		0.00000000		0.00000000		2.74999811	
PRIMCOORD
   14 1	
Si		0.00000000		0.00000000		0.00000000		0.00000000		0.00000000		0.00000000	
Si		2.24099982		4.42499982		0.00000000		0.00000000		0.00000000		0.00000000	
Mg		0.36707577		2.94616493		1.37499995		 0.00045014		-0.00078275		-0.00000000	
Mg		4.11492388		5.90383471		1.37499995		-0.00045014		 0.00078275		-0.00000000	
Mg		1.87392405		7.37116430		1.37499995		-0.00045014		-0.00078275		0.00000000	
Mg		2.60807560		1.47883489		1.37499995		 0.00045014		 0.00078275		0.00000000	
O		0.96990472		0.39647993		1.37499995		 0.00002398		 0.00069461		-0.00000000	
O		3.51209492		8.45352015		1.37499995		-0.00002398		-0.00069461		-0.00000000	
O		1.27109510		4.82147975		1.37499995		-0.00002398		 0.00069461		0.00000000	
O		3.21090455		4.02851989		1.37499995		 0.00002398		-0.00069461		0.00000000	
O		1.75918486		2.73199482		0.00000000		 0.00044050		-0.00001161		0.00000000	
O		2.72281479		6.11800571		0.00000000		-0.00044050		 0.00001161		0.00000000	
O		0.48181496		7.15699464		0.00000000		-0.00044050		-0.00001161		0.00000000	
O		4.00018469		1.69300500		0.00000000		 0.00044050		 0.00001161		0.00000000	
