# total energy = -34530.3521234 eV

CRYSTAL
PRIMVEC
		9.34399986		0.00000000		0.00000000
		0.00000000		5.70610039		0.00000000
		-0.48050585		0.00000000		13.28130911
PRIMECORD
   56 1
Si		1.25702494		2.73208091		4.82257662		-0.00035659		-0.00030891		-0.00002944
Si		7.60647094		2.97401855		8.45873342		 0.00035659		 0.00030891		 0.00002944
Si		7.84672293		2.73208091		1.81807887		 0.00035787		-0.00038484		-0.00017878
Si		1.01677295		2.97401855		11.46323210		-0.00035787		 0.00038484		 0.00017878
Si		5.92902487		5.58513110		4.82257662		-0.00035665		-0.00030898		-0.00002951
Si		2.93447101		0.12096929		8.45873342		 0.00035665		 0.00030898		 0.00002951
Si		3.17472300		5.58513110		1.81807887		 0.00035794		-0.00038469		-0.00017877
Si		5.68877288		0.12096929		11.46323210		-0.00035794		 0.00038469		 0.00017877
Mg		4.43174794		2.85305020		6.64065455		0.00000000		0.00000000		0.00000000
Mg		4.67199993		2.85305020		0.00000000		0.00000000		0.00000000		0.00000000
Mg		-0.24025199		0.00000000		6.64065455		0.00000000		0.00000000		0.00000000
Mg		0.00000000		0.00000000		0.00000000		0.00000000		0.00000000		0.00000000
O		0.46208042		1.21939385		4.97119480		-0.00012564		 0.00002160		-0.00032608
O		8.40141453		4.48670654		8.31011617		 0.00012564		-0.00002160		 0.00032608
O		8.64166745		1.21939385		1.66946068		 0.00011379		 0.00004524		 0.00035129
O		0.22182843		4.48670654		11.61184936		-0.00011379		-0.00004524		-0.00035129
O		5.13408034		4.07244405		4.97119480		-0.00012562		 0.00002158		-0.00032596
O		3.72941553		1.63365635		8.31011617		 0.00012562		-0.00002158		 0.00032596
O		3.96966752		4.07244405		1.66946068		 0.00011369		 0.00004522		 0.00035139
O		4.89382835		1.63365635		11.61184936		-0.00011369		-0.00004522		-0.00035139
O		2.66276525		2.62024070		5.63791629		 0.00008530		 0.00000197		-0.00049914
O		6.20072970		3.08585876		7.64339375		-0.00008530		-0.00000197		 0.00049914
O		6.44098262		2.62024070		1.00273920		-0.00004360		 0.00001177		 0.00053653
O		2.42251326		3.08585876		12.27857178		 0.00004360		-0.00001177		-0.00053653
O		7.33476517		5.47329090		5.63791629		 0.00008520		 0.00000188		-0.00049907
O		1.52873070		0.23280856		7.64339375		-0.00008520		-0.00000188		 0.00049907
O		1.76898269		5.47329090		1.00273920		-0.00004376		 0.00001168		 0.00053672
O		7.09451318		0.23280856		12.27857178		 0.00004376		-0.00001168		-0.00053672
O		0.40556510		3.93378563		5.65518213		-0.00019122		-0.00022455		-0.00004137
O		8.45793078		1.77231476		7.62612884		 0.00019122		 0.00022455		 0.00004137
O		8.69818277		3.93378563		0.98547335		 0.00017809		-0.00023715		 0.00006693
O		0.16531218		1.77231476		12.29583669		-0.00017809		 0.00023715		-0.00006693
O		5.07756409		1.08073543		5.65518213		-0.00019105		-0.00022463		-0.00004125
O		3.78593085		4.62536496		7.62612884		 0.00019105		 0.00022463		 0.00004125
O		4.02618284		1.08073543		0.98547335		 0.00017792		-0.00023693		 0.00006679
O		4.83731210		4.62536496		12.29583669		-0.00017792		 0.00023693		-0.00006679
O		1.45510185		3.34548740		3.35087515		 0.00010470		-0.00045998		 0.00034727
O		7.40839402		2.36061393		9.93043583		-0.00010470		 0.00045998		-0.00034727
O		7.64864601		3.34548740		3.28978127		-0.00012237		-0.00041012		-0.00018683
O		1.21484893		2.36061393		9.99152970		 0.00012237		 0.00041012		 0.00018683
O		6.12710085		0.49243720		3.35087515		 0.00010473		-0.00045989		 0.00034700
O		2.73639410		5.21366412		9.93043583		-0.00010473		 0.00045989		-0.00034700
O		2.97664609		0.49243720		3.28978127		-0.00012238		-0.00041034		-0.00018701
O		5.88684886		5.21366412		9.99152970		 0.00012238		 0.00041034		 0.00018701
Ca		1.59139157		2.73892819		1.18761491		-0.00036045		-0.00008695		 0.00014263
Ca		7.27210244		2.96717220		12.09369607		 0.00036045		 0.00008695		-0.00014263
Ca		7.51235443		2.73892819		5.45304058		 0.00036084		-0.00008853		-0.00017349
Ca		1.35113958		2.96717220		7.82826946		-0.00036084		 0.00008853		 0.00017349
Ca		6.26339149		5.59197745		1.18761491		-0.00036048		-0.00008688		 0.00014237
Ca		2.60010251		0.11412201		12.09369607		 0.00036048		 0.00008688		-0.00014237
Ca		2.84035450		5.59197745		5.45304058		 0.00036075		-0.00008851		-0.00017375
Ca		6.02313950		0.11412201		7.82826946		-0.00036075		 0.00008851		 0.00017375
Ca		-0.12012646		5.30153697		3.32032774		 0.00000082		 0.00070164		-0.00001893
Ca		-0.36037845		0.40456342		9.96098323		-0.00000082		-0.00070164		 0.00001893
Ca		4.55187347		2.44848771		3.32032774		 0.00000077		 0.00070155		-0.00001907
Ca		4.31162148		3.25761269		9.96098323		-0.00000077		-0.00070155		 0.00001907
