# total energy = -34530.8718179 eV

CRYSTAL
PRIMVEC
		9.34399986		0.00000000		0.00000000
		0.00000000		5.04260165		0.00000000
		-0.48050585		0.00000000		13.28130911
PRIMECORD
   56 1
Si		1.25702494		2.41439706		4.82257662		 0.00025028		-0.00026094		-0.00043913
Si		7.60647094		2.62820272		8.45873342		-0.00025028		 0.00026094		 0.00043913
Si		7.84672293		2.41439706		1.81807887		-0.00027935		-0.00023782		 0.00047804
Si		1.01677295		2.62820272		11.46323210		 0.00027935		 0.00023782		-0.00047804
Si		5.92902487		4.93569695		4.82257662		 0.00028178		-0.00023709		-0.00048605
Si		2.93447101		0.10690283		8.45873342		-0.00028178		 0.00023709		 0.00048605
Si		3.17472300		4.93569695		1.81807887		-0.00024661		-0.00026188		 0.00043183
Si		5.68877288		0.10690283		11.46323210		 0.00024661		 0.00026188		-0.00043183
Mg		4.43174794		2.52129989		6.64065455		0.00000000		0.00000000		0.00000000
Mg		4.67199993		2.52129989		0.00000000		0.00000000		0.00000000		0.00000000
Mg		-0.24025199		0.00000000		6.64065455		0.00000000		0.00000000		0.00000000
Mg		0.00000000		0.00000000		0.00000000		0.00000000		0.00000000		0.00000000
O		0.46208042		1.07760426		4.97119480		 0.00039205		 0.00013152		 0.00004966
O		8.40141453		3.96499552		8.31011617		-0.00039205		-0.00013152		-0.00004966
O		8.64166745		1.07760426		1.66946068		-0.00037835		 0.00011175		-0.00005465
O		0.22182843		3.96499552		11.61184936		 0.00037835		-0.00011175		 0.00005465
O		5.13408034		3.59890415		4.97119480		 0.00037889		 0.00011108		 0.00005639
O		3.72941553		1.44369563		8.31011617		-0.00037889		-0.00011108		-0.00005639
O		3.96966752		3.59890415		1.66946068		-0.00039203		 0.00013296		-0.00004786
O		4.89382835		1.44369563		11.61184936		 0.00039203		-0.00013296		 0.00004786
O		2.66276525		2.31556183		5.63791629		-0.00008217		 0.00000909		-0.00027957
O		6.20072970		2.72703795		7.64339375		 0.00008217		-0.00000909		 0.00027957
O		6.44098262		2.31556183		1.00273920		 0.00009152		 0.00000850		 0.00028052
O		2.42251326		2.72703795		12.27857178		-0.00009152		-0.00000850		-0.00028052
O		7.33476517		4.83686172		5.63791629		-0.00009215		 0.00000786		-0.00027980
O		1.52873070		0.20573806		7.64339375		 0.00009215		-0.00000786		 0.00027980
O		1.76898269		4.83686172		1.00273920		 0.00007996		 0.00000940		 0.00027951
O		7.09451318		0.20573806		12.27857178		-0.00007996		-0.00000940		-0.00027951
O		0.40556510		3.47636880		5.65518213		 0.00079439		-0.00021077		-0.00013442
O		8.45793078		1.56623098		7.62612884		-0.00079439		 0.00021077		 0.00013442
O		8.69818277		3.47636880		0.98547335		-0.00078255		-0.00020156		 0.00012572
O		0.16531218		1.56623098		12.29583669		 0.00078255		 0.00020156		-0.00012572
O		5.07756409		0.95506891		5.65518213		 0.00078169		-0.00020008		-0.00012403
O		3.78593085		4.08753180		7.62612884		-0.00078169		 0.00020008		 0.00012403
O		4.02618284		0.95506891		0.98547335		-0.00079542		-0.00021303		 0.00013634
O		4.83731210		4.08753180		12.29583669		 0.00079542		 0.00021303		-0.00013634
O		1.45510185		2.95647706		3.35087515		 0.00053765		-0.00028262		-0.00049424
O		7.40839402		2.08612365		9.93043583		-0.00053765		 0.00028262		 0.00049424
O		7.64864601		2.95647706		3.28978127		-0.00053181		-0.00029270		 0.00046351
O		1.21484893		2.08612365		9.99152970		 0.00053181		 0.00029270		-0.00046351
O		6.12710085		0.43517624		3.35087515		 0.00053129		-0.00029312		-0.00045902
O		2.73639410		4.60742354		9.93043583		-0.00053129		 0.00029312		 0.00045902
O		2.97664609		0.43517624		3.28978127		-0.00053787		-0.00028210		 0.00049830
O		5.88684886		4.60742354		9.99152970		 0.00053787		 0.00028210		-0.00049830
Ca		1.59139157		2.42044823		1.18761491		 0.00021120		-0.00064703		 0.00010183
Ca		7.27210244		2.62215155		12.09369607		-0.00021120		 0.00064703		-0.00010183
Ca		7.51235443		2.42044823		5.45304058		-0.00020706		-0.00064837		-0.00010403
Ca		1.35113958		2.62215155		7.82826946		 0.00020706		 0.00064837		 0.00010403
Ca		6.26339149		4.94174812		1.18761491		 0.00020664		-0.00064818		 0.00010104
Ca		2.60010251		0.10085166		12.09369607		-0.00020664		 0.00064818		-0.00010104
Ca		2.84035450		4.94174812		5.45304058		-0.00021150		-0.00064710		-0.00010478
Ca		6.02313950		0.10085166		7.82826946		 0.00021150		 0.00064710		 0.00010478
Ca		-0.12012646		4.68507966		3.32032774		-0.00000305		 0.00085074		-0.00000111
Ca		-0.36037845		0.35752012		9.96098323		 0.00000305		-0.00085074		 0.00000111
Ca		4.55187347		2.16377977		3.32032774		 0.00000197		 0.00085085		-0.00000382
Ca		4.31162148		2.87882095		9.96098323		-0.00000197		-0.00085085		 0.00000382
