# total energy = -38097.577226 eV

CRYSTAL
PRIMVEC
		5.69210020		-0.22768378		0.00000000
		-0.45839818		11.46000005		0.00000000
		0.00000000		0.00000000		8.25300155
PRIMECORD
   58 1
O		1.47939086		1.34700523		8.19440408		 0.00059737		 0.00055240		-0.00016901
O		3.75430889		9.88531105		0.05859576		-0.00059737		-0.00055240		 0.00016901
O		3.98350912		4.15531102		8.19440408		-0.00059737		-0.00055240		-0.00016901
O		1.25019120		7.07700468		0.05859576		 0.00059737		 0.00055240		 0.00016901
O		1.13366618		9.99013684		0.05859576		 0.00046018		-0.00019610		-0.00030930
O		4.10003413		1.24217886		8.19440408		-0.00046018		 0.00019610		 0.00030930
O		3.87083390		6.97217888		0.05859576		-0.00046018		 0.00019610		-0.00030930
O		1.36286584		4.26013682		8.19440408		 0.00046018		-0.00019610		 0.00030930
O		2.62166297		5.49582776		6.23596696		 0.00013014		 0.00064915		-0.00064863
O		2.61203677		5.73648794		2.01703288		-0.00013014		-0.00064915		 0.00064863
O		2.84123700		0.00648792		6.23596696		-0.00013014		-0.00064915		-0.00064863
O		2.39246274		11.22582778		2.01703288		 0.00013014		 0.00064915		 0.00064863
O		-0.11460011		2.86500001		5.91575018		0.00000000		0.00000000		-0.00009139
O		-0.34379977		8.59500004		2.33725022		0.00000000		0.00000000		 0.00009139
O		-0.11460011		2.86500001		1.80493115		0.00000000		0.00000000		-0.00004954
O		-0.34379977		8.59500004		6.44806868		0.00000000		0.00000000		 0.00004954
O		2.50224976		8.48115815		5.93143079		0.00000000		0.00000000		 0.00022872
O		2.73144999		2.75115812		2.32156905		0.00000000		0.00000000		-0.00022872
O		2.50224976		8.48115815		1.78924998		0.00000000		0.00000000		 0.00059284
O		2.73144999		2.75115812		6.46374986		0.00000000		0.00000000		-0.00059284
O		-0.45358679		11.33966967		2.10946675		-0.00078720		 0.00001663		-0.00015051
O		-0.00481310		0.12032981		6.14353422		 0.00078720		-0.00001663		 0.00015051
O		-0.23401276		5.85032983		2.10946675		 0.00078720		-0.00001663		-0.00015051
O		-0.22438713		5.60967022		6.14353422		-0.00078720		 0.00001663		 0.00015051
O		4.09624073		6.96316279		4.06790387		-0.00015674		-0.00054671		 0.00005590
O		1.13745902		4.26915291		4.18509596		 0.00015674		 0.00054671		-0.00005590
O		0.90825879		9.99915294		4.06790387		 0.00015674		 0.00054671		 0.00005590
O		4.32544096		1.23316277		4.18509596		-0.00015674		-0.00054671		-0.00005590
O		4.20891594		4.14629493		4.18509596		-0.00071745		-0.00060921		-0.00012950
O		1.02478380		7.08602077		4.06790387		 0.00071745		 0.00060921		 0.00012950
O		1.25398403		1.35602075		4.18509596		 0.00071745		 0.00060921		-0.00012950
O		3.97971572		9.87629495		4.06790387		-0.00071745		-0.00060921		 0.00012950
H		2.50224976		8.48115815		4.88165008		0.00000000		0.00000000		-0.00004927
H		2.73144999		2.75115812		3.37135090		0.00000000		0.00000000		 0.00004927
H		-0.11460011		2.86500001		2.85471300		0.00000000		0.00000000		 0.00013857
H		-0.34379977		8.59500004		5.39828684		0.00000000		0.00000000		-0.00013857
Mg		2.61684987		5.61615814		4.12650020		0.00000000		0.00000000		0.00000000
Mg		2.84605010		-0.11384189		4.12650020		0.00000000		0.00000000		0.00000000
Mg		0.00000000		0.00000000		0.00000000		0.00000000		0.00000000		0.00000000
Mg		-0.22920023		5.73000003		0.00000000		0.00000000		0.00000000		0.00000000
Mg		1.36508298		1.39162311		2.06324982		 0.00001151		 0.00001103		 0.00032408
Mg		3.86861676		9.84069316		6.18975002		-0.00001151		-0.00001103		-0.00032408
Mg		4.09781699		4.11069313		2.06324982		-0.00001151		-0.00001103		 0.00032408
Mg		1.13588275		7.12162314		6.18975002		 0.00001151		 0.00001103		-0.00032408
Mg		1.02256723		9.95453505		6.18975002		 0.00028820		 0.00016763		 0.00018151
Mg		4.21113308		1.27778122		2.06324982		-0.00028820		-0.00016763		-0.00018151
Mg		3.98193285		7.00778068		6.18975002		-0.00028820		-0.00016763		 0.00018151
Mg		1.25176689		4.22453502		2.06324982		 0.00028820		 0.00016763		-0.00018151
Mg		-0.11460011		2.86500001		8.00623512		0.00000000		0.00000000		 0.00079070
Mg		-0.34379977		8.59500004		0.24676472		0.00000000		0.00000000		-0.00079070
Si		2.56179572		6.99250397		0.96230007		 0.00021041		-0.00037330		 0.00032076
Si		2.67190402		4.23981174		7.29070090		-0.00021041		 0.00037330		-0.00032076
Si		2.44270379		9.96981176		0.96230007		-0.00021041		 0.00037330		 0.00032076
Si		2.79099595		1.26250394		7.29070090		 0.00021041		-0.00037330		-0.00032076
Si		-0.05505415		1.37634583		5.08879971		 0.00026095		-0.00038943		-0.00047967
Si		-0.40334574		10.08365422		3.16420013		-0.00026095		 0.00038943		 0.00047967
Si		-0.17414608		4.35365419		5.08879971		-0.00026095		 0.00038943		-0.00047967
Si		-0.28425381		7.10634586		3.16420013		 0.00026095		-0.00038943		 0.00047967
