# total energy = -38090.7083506 eV

CRYSTAL
PRIMVEC
		5.69210074		0.68305071		0.00000000
		1.37519960		11.46000237		0.00000000
		0.00000000		0.00000000		8.25299772
PRIMECORD
   58 1
O		1.70474082		1.59272096		8.19440367		-0.00002767		 0.00023927		 0.00048230
O		5.36255894		10.55032982		0.05859577		 0.00002767		-0.00023927		-0.00048230
O		4.67495857		4.82032979		8.19440367		 0.00002767		-0.00023927		 0.00048230
O		2.39234119		7.32272158		0.05859577		-0.00002767		 0.00023927		-0.00048230
O		2.74191674		10.23585246		0.05859577		-0.00006095		-0.00063630		 0.00022511
O		4.32538302		1.90719890		8.19440367		 0.00006095		 0.00063630		-0.00022511
O		5.01298397		7.63719894		0.05859577		 0.00006095		 0.00063630		 0.00022511
O		2.05431694		4.50585300		8.19440367		-0.00006095		-0.00063630		-0.00022511
O		3.51921005		5.95119564		6.23596665		-0.00007064		 0.00007960		-0.00022235
O		3.54808972		6.19185572		2.01703279		 0.00007064		-0.00007960		 0.00022235
O		2.86048992		0.46185625		6.23596665		 0.00007064		-0.00007960		-0.00022235
O		4.20680985		11.68119568		2.01703279		-0.00007064		 0.00007960		 0.00022235
O		0.34380019		2.86500002		5.91575005		0.00000000		0.00000000		-0.00015208
O		1.03139998		8.59499948		2.33724997		0.00000000		0.00000000		 0.00015208
O		0.34380019		2.86500002		1.80493077		0.00000000		0.00000000		-0.00006739
O		1.03139998		8.59499948		6.44806867		0.00000000		0.00000000		 0.00006739
O		3.87744978		8.93652599		5.93143077		0.00000000		0.00000000		 0.00060254
O		3.18984998		3.20652595		2.32156867		0.00000000		0.00000000		-0.00060254
O		3.87744978		8.93652599		1.78925004		0.00000000		0.00000000		-0.00031719
O		3.18984998		3.20652595		6.46374997		0.00000000		0.00000000		 0.00031719
O		1.36076005		11.33966975		2.10946722		 0.00023154		 0.00017644		-0.00040276
O		0.01444012		0.12032975		6.14353394		-0.00023154		-0.00017644		 0.00040276
O		0.70203992		5.85032979		2.10946722		-0.00023154		-0.00017644		-0.00040276
O		0.67316025		5.60966972		6.14353394		 0.00023154		 0.00017644		 0.00040276
O		5.23839099		7.66424751		4.06790366		-0.00007707		-0.00012986		-0.00006343
O		1.82890877		4.47880386		4.18509578		 0.00007707		 0.00012986		 0.00006343
O		2.51650914		10.20880390		4.06790366		 0.00007707		 0.00012986		-0.00006343
O		4.55079062		1.93424804		4.18509578		-0.00007707		-0.00012986		 0.00006343
O		4.90036674		4.84737893		4.18509578		 0.00002778		-0.00034130		 0.00022479
O		2.16693303		7.29567301		4.06790366		-0.00002778		 0.00034130		-0.00022479
O		1.47933323		1.56567297		4.18509578		-0.00002778		 0.00034130		 0.00022479
O		5.58796654		10.57737839		4.06790366		 0.00002778		-0.00034130		-0.00022479
H		3.87744978		8.93652599		4.88164985		0.00000000		0.00000000		 0.00073417
H		3.18984998		3.20652595		3.37135074		0.00000000		0.00000000		-0.00073417
H		0.34380019		2.86500002		2.85471284		0.00000000		0.00000000		 0.00011889
H		1.03139998		8.59499948		5.39828660		0.00000000		0.00000000		-0.00011889
Mg		3.53365017		6.07152597		4.12650001		0.00000000		0.00000000		0.00000000
Mg		2.84604980		0.34152593		4.12650001		0.00000000		-0.00000000		-0.00000000
Mg		0.00000000		0.00000000		0.00000000		0.00000000		-0.00000000		0.00000000
Mg		0.68759980		5.73000004		0.00000000		0.00000000		0.00000000		0.00000000
Mg		1.59684983		1.61930688		2.06325000		-0.00053198		 0.00005565		-0.00042998
Mg		5.47044994		10.52374448		6.18975001		 0.00053198		-0.00005565		 0.00042998
Mg		4.78284957		4.79374501		2.06325000		 0.00053198		-0.00005565		-0.00042998
Mg		2.28445020		7.34930692		6.18975001		-0.00053198		 0.00005565		 0.00042998
Mg		2.62440014		10.18221855		6.18975001		 0.00017374		-0.00025222		 0.00024658
Mg		4.44289962		1.96083281		2.06325000		-0.00017374		 0.00025222		-0.00024658
Mg		5.13049999		7.69083285		6.18975001		-0.00017374		 0.00025222		 0.00024658
Mg		1.93679977		4.45221908		2.06325000		 0.00017374		-0.00025222		-0.00024658
Mg		0.34380019		2.86500002		8.00623494		0.00000000		0.00000000		 0.00004313
Mg		1.03139998		8.59499948		0.24676508		0.00000000		0.00000000		-0.00004313
Si		3.69881206		7.44787158		0.96229975		-0.00021215		-0.00005585		 0.00004218
Si		3.36848771		4.69517978		7.29070083		 0.00021215		 0.00005585		-0.00004218
Si		4.05608808		10.42517982		0.96229975		 0.00021215		 0.00005585		 0.00004218
Si		3.01121168		1.71787211		7.29070083		-0.00021215		-0.00005585		-0.00004218
Si		0.16516189		1.37634618		5.08879976		-0.00016469		-0.00008974		 0.00017581
Si		1.21003771		10.08365389		3.16419968		 0.00016469		 0.00008974		-0.00017581
Si		0.52243791		4.35365385		5.08879976		 0.00016469		 0.00008974		 0.00017581
Si		0.85276226		7.10634565		3.16419968		-0.00016469		-0.00008974		-0.00017581
