# total energy = -38094.9968059 eV

CRYSTAL
PRIMVEC
		5.69209829		-0.45536672		0.00000000
		-0.91679777		11.46000062		0.00000000
		0.00000000		0.00000000		8.25300147
PRIMECORD
   58 1
O		1.42305398		1.28557600		8.19440366		-0.00019460		-0.00005247		 0.00002202
O		3.35224597		9.71905561		0.05859610		 0.00019460		 0.00005247		-0.00002202
O		3.81064600		3.98905587		8.19440366		 0.00019460		 0.00005247		 0.00002202
O		0.96465396		7.01557574		0.05859610		-0.00019460		-0.00005247		-0.00002202
O		0.73160293		9.92870760		0.05859610		 0.00021411		 0.00025404		 0.00052187
O		4.04369703		1.07592401		8.19440366		-0.00021411		-0.00025404		-0.00052187
O		3.58529700		6.80592375		0.05859610		-0.00021411		-0.00025404		 0.00052187
O		1.19000295		4.19870787		8.19440366		 0.00021411		 0.00025404		-0.00052187
O		2.39727609		5.38198581		6.23596701		-0.00046590		-0.00025086		 0.00001892
O		2.37802386		5.62264580		2.01703274		 0.00046590		 0.00025086		-0.00001892
O		2.83642389		-0.10735394		6.23596701		 0.00046590		 0.00025086		 0.00001892
O		1.93887606		11.11198555		2.01703274		-0.00046590		-0.00025086		-0.00001892
O		-0.22920001		2.86499987		5.91574962		0.00000000		0.00000000		 0.00021415
O		-0.68760004		8.59499961		2.33725014		0.00000000		0.00000000		-0.00021415
O		-0.22920001		2.86499987		1.80493104		0.00000000		0.00000000		-0.00000898
O		-0.68760004		8.59499961		6.44806872		0.00000000		0.00000000		 0.00000898
O		2.15844968		8.36731567		5.93143063		0.00000000		0.00000000		 0.00021841
O		2.61684970		2.63731594		2.32156912		0.00000000		0.00000000		-0.00021841
O		2.15844968		8.36731567		1.78925002		0.00000000		0.00000000		 0.00046040
O		2.61684970		2.63731594		6.46374973		0.00000000		0.00000000		-0.00046040
O		-0.90717422		11.33966948		2.10946685		 0.00000194		 0.00021538		 0.00003991
O		-0.00962583		0.12032999		6.14353405		-0.00000194		-0.00021538		-0.00003991
O		-0.46802585		5.85032973		2.10946685		-0.00000194		-0.00021538		 0.00003991
O		-0.44877420		5.60966974		6.14353405		 0.00000194		 0.00021538		-0.00003991
O		3.81070367		6.78789181		4.06790407		 0.00085553		-0.00051422		 0.00032058
O		0.96459571		4.21673981		4.18509569		-0.00085553		 0.00051422		-0.00032058
O		0.50619626		9.94673954		4.06790407		-0.00085553		 0.00051422		 0.00032058
O		4.26910369		1.05789207		4.18509569		 0.00085553		-0.00051422		-0.00032058
O		4.03605267		3.97102393		4.18509569		 0.00053442		 0.00019067		-0.00041372
O		0.73924671		7.03360768		4.06790407		-0.00053442		-0.00019067		 0.00041372
O		1.19764674		1.30360794		4.18509569		-0.00053442		-0.00019067		-0.00041372
O		3.57765264		9.70102367		4.06790407		 0.00053442		 0.00019067		 0.00041372
H		2.15844968		8.36731567		4.88165002		0.00000000		0.00000000		 0.00030853
H		2.61684970		2.63731594		3.37135087		0.00000000		0.00000000		-0.00030853
H		-0.22920001		2.86499987		2.85471279		0.00000000		0.00000000		 0.00023485
H		-0.68760004		8.59499961		5.39828697		0.00000000		0.00000000		-0.00023485
Mg		2.38764969		5.50231581		4.12650016		-0.00000000		-0.00000000		-0.00000000
Mg		2.84604971		-0.22768393		4.12650016		0.00000000		0.00000000		0.00000000
Mg		0.00000000		0.00000000		0.00000000		0.00000000		0.00000000		0.00000000
Mg		-0.45840002		5.72999974		0.00000000		0.00000000		0.00000000		-0.00000000
Mg		1.30714089		1.33470216		2.06325008		-0.00017836		-0.00005317		-0.00028409
Mg		3.46815906		9.66993002		6.18974967		 0.00017836		 0.00005317		 0.00028409
Mg		3.92655908		3.93992972		2.06325008		 0.00017836		 0.00005317		-0.00028409
Mg		0.84874087		7.06470189		6.18974967		-0.00017836		-0.00005317		 0.00028409
Mg		0.62210877		9.89761396		6.18974967		 0.00052362		-0.00015871		-0.00024267
Mg		4.15319175		1.10701823		2.06325008		-0.00052362		 0.00015871		 0.00024267
Mg		3.69479173		6.83701796		6.18974967		-0.00052362		 0.00015871		-0.00024267
Mg		1.08050880		4.16761365		2.06325008		 0.00052362		-0.00015871		 0.00024267
Mg		-0.22920001		2.86499987		8.00623490		0.00000000		0.00000000		 0.00031297
Mg		-0.68760004		8.59499961		0.24676485		0.00000000		0.00000000		-0.00031297
Si		2.27754168		6.87866193		0.96230018		-0.00034667		 0.00013394		 0.00010845
Si		2.49775770		4.12596968		7.29070072		 0.00034667		-0.00013394		-0.00010845
Si		2.03935768		9.85596999		0.96230018		 0.00034667		-0.00013394		 0.00010845
Si		2.73594170		1.14866220		7.29070072		-0.00034667		 0.00013394		-0.00010845
Si		-0.11010801		1.37634613		5.08879977		 0.00012071		-0.00002579		 0.00034612
Si		-0.80669204		10.08365392		3.16419999		-0.00012071		 0.00002579		-0.00034612
Si		-0.34829201		4.35365418		5.08879977		-0.00012071		 0.00002579		 0.00034612
Si		-0.56850803		7.10634587		3.16419999		 0.00012071		-0.00002579		-0.00034612
