# total energy = -7658.54303231 eV

CRYSTAL
PRIMVEC
		5.40218165		0.00000000		0.00000000
		-2.70109082		4.79838521		0.00000000
		0.00000000		0.00000000		4.84349883
PRIMECORD
   15 1
Mg		0.00000000		0.00000000		0.00000000		0.00000000		0.00000000		0.00000000
Mg		0.00000000		3.19892455		0.05279390		-0.00079000		 0.00001673		 0.00063732
Mg		2.70109082		1.59946174		4.79070547		 0.00079000		-0.00001673		-0.00063732
O		0.89028008		1.60553973		1.06557007		-0.00074266		 0.00011880		-0.00021620
O		1.81081075		3.19284656		3.77792984		 0.00074266		-0.00011880		 0.00021620
O		0.90027411		4.78639074		1.06557007		-0.00025347		-0.00012524		-0.00036117
O		1.80081779		0.01199608		3.77792984		 0.00025347		 0.00012524		 0.00036117
O		-1.79055311		3.20484156		1.06557007		 0.00041283		 0.00002438		-0.00023744
O		4.49164447		1.59354365		3.77792984		-0.00041283		-0.00002438		 0.00023744
H		0.76630001		1.67607710		2.04395702		 0.00015758		 0.00003881		-0.00021488
H		1.93479190		3.12230973		2.79954288		-0.00015758		-0.00003881		 0.00021488
H		0.90270401		4.64099967		2.04395702		 0.00005444		 0.00021422		-0.00036483
H		1.79838681		0.15738716		2.79954288		-0.00005444		-0.00021422		 0.00036483
H		-1.66900402		3.27969689		2.04395702		 0.00035670		-0.00025993		-0.00073027
H		4.37009592		1.51868886		2.79954288		-0.00035670		 0.00025993		 0.00073027
