# total energy = -24713.0139084 eV

CRYSTAL
PRIMVEC
		9.03899958		0.00000000		0.00000000
		0.00000000		8.69500237		0.69559621
		0.00000000		0.40711654		5.08900196
PRIMECORD
   40 1
O		1.09371895		0.77522709		0.35984167		 0.00021229		-0.00003004		-0.00005805
O		1.09371895		8.17129087		3.47974186		 0.00034384		-0.00012803		 0.00009775
O		5.61321874		5.27832832		2.65265803		 0.00034384		 0.00012803		-0.00009775
O		5.61321874		3.97939245		5.07695749		 0.00021229		 0.00003004		 0.00005805
O		3.40679894		2.18196207		0.70851565		-0.00020397		 0.00032303		-0.00054127
O		3.40679894		6.80258206		3.60638096		 0.00005356		-0.00017378		-0.00013695
O		7.92629783		6.64703805		2.52601894		 0.00005356		 0.00017378		 0.00013695
O		7.92629783		2.57265746		4.72828351		-0.00020397		-0.00032303		 0.00054127
O		3.23415405		8.46738952		2.07296620		-0.00006546		-0.00031523		-0.00002328
O		3.23415405		0.65589964		3.97626224		-0.00011868		 0.00052515		-0.00024248
O		7.75365384		4.09871990		1.46053782		-0.00011868		-0.00052515		 0.00024248
O		7.75365384		4.98222878		4.05943369		-0.00006546		 0.00031523		 0.00002328
O		7.93985633		8.25741627		5.08547585		 0.00004112		 0.00001270		 0.00028764
O		7.93985633		0.94656404		1.97239196		-0.00019671		-0.00030656		-0.00005037
O		3.42035744		3.80805550		3.46440810		-0.00019671		 0.00030656		 0.00005037
O		3.42035744		5.19220293		1.04692405		 0.00004112		-0.00001270		-0.00028764
O		5.61683344		7.00111374		5.40768906		-0.00037818		-0.00008522		 0.00016265
O		5.61683344		2.27093746		2.50105955		 0.00005243		 0.00012318		 0.00020698
O		1.09733455		2.48368207		2.93573961		 0.00005243		-0.00012318		-0.00020698
O		1.09733455		6.44850456		0.72471083		-0.00037818		 0.00008522		-0.00016265
O		5.84280843		8.50391340		3.52303776		 0.00007816		-0.00051683		 0.00000351
O		5.84280843		0.44529185		0.35013288		 0.00010329		 0.00011469		-0.00016099
O		1.32330863		4.30932768		5.08666719		 0.00010329		-0.00011469		 0.00016099
O		1.32330863		4.94570579		2.60936213		 0.00007816		 0.00051683		-0.00000351
Si		2.68187118		0.79909276		0.40978666		-0.00021988		 0.00007376		-0.00028046
Si		2.68187118		8.15515987		3.52648795		 0.00018449		 0.00032309		 0.00019579
Si		7.20137097		5.29445842		2.60591194		 0.00018449		-0.00032309		-0.00019579
Si		7.20137097		3.95552587		5.02701250		-0.00021988		-0.00007376		 0.00028046
Si		6.34447381		8.26686474		5.01999191		 0.00028116		 0.00026256		-0.00008924
Si		6.34447381		0.92644955		1.90454433		-0.00011321		 0.00013325		-0.00020982
Si		1.82497402		3.82816999		3.53225574		-0.00011321		-0.00013325		 0.00020982
Si		1.82497402		5.18275446		1.11240798		 0.00028116		-0.00026256		 0.00008924
Mg		9.01640118		1.12708732		3.71057079		 0.00012095		 0.00007189		 0.00076421
Mg		9.01640118		7.94734785		1.72797651		-0.00017696		-0.00009986		-0.00033886
Mg		4.49690139		5.50227044		4.40442248		-0.00017696		 0.00009986		 0.00033886
Mg		4.49690139		3.62753222		1.72622927		 0.00012095		-0.00007189		-0.00076421
Mg		0.05423400		2.37174762		1.27737786		 0.00016520		-0.00011746		 0.00008318
Mg		0.05423400		6.70195449		4.15201022		-0.00016344		-0.00001819		-0.00000042
Mg		4.57373379		6.74766381		1.98038967		-0.00016344		 0.00001819		 0.00000042
Mg		4.57373379		2.38287192		4.15942220		 0.00016520		 0.00011746		-0.00008318
