# total energy = -24707.6465929 eV

CRYSTAL
PRIMVEC
		9.03899958		0.00000000		0.00000000
		0.00000000		8.69500237		1.39120146
		0.00000000		0.81424212		5.08900196
PRIMECORD
   40 1
O		1.09371895		0.79920665		0.41994198		-0.00029428		 0.00015217		 0.00001056
O		1.09371895		8.39882961		4.11524138		 0.00054836		 0.00008448		-0.00033880
O		5.61321874		5.45790884		3.06055826		 0.00054836		-0.00008448		 0.00033880
O		5.61321874		4.36253304		5.36465800		-0.00029428		-0.00015217		-0.00001056
O		3.40679894		2.22495427		0.87963386		-0.00016401		-0.00012633		-0.00046055
O		3.40679894		7.04913342		4.13086258		-0.00051272		 0.00002809		-0.00046466
O		7.92629783		6.80760593		3.04493706		-0.00051272		-0.00002809		 0.00046466
O		7.92629783		2.93678543		4.90496702		-0.00016401		 0.00012633		 0.00046055
O		3.23415405		8.57975603		2.74136768		 0.00028162		-0.00015004		-0.00059101
O		3.23415405		0.97182533		4.00345969		 0.00025993		 0.00061567		-0.00004448
O		7.75365384		4.18991436		1.78114029		 0.00025993		-0.00061567		 0.00004448
O		7.75365384		5.27698332		4.43443196		 0.00028162		 0.00015004		 0.00059101
O		7.93985633		8.61368753		5.71756766		-0.00027908		 0.00021861		-0.00017454
O		7.93985633		1.09927522		2.03590088		 0.00036818		-0.00028075		-0.00079169
O		3.42035744		4.06246447		3.74870000		 0.00036818		 0.00028075		 0.00079169
O		3.42035744		5.24305182		1.45823288		-0.00027908		-0.00021861		 0.00017454
O		5.61683344		7.39141955		5.93655370		 0.00021721		-0.00021843		 0.00037328
O		5.61683344		2.45768410		2.66779474		 0.00036013		 0.00011390		-0.00063252
O		1.09733455		2.70405559		3.11680524		 0.00036013		-0.00011390		 0.00063252
O		1.09733455		6.46531981		1.23924594		 0.00021721		 0.00021843		-0.00037328
O		5.84280843		8.73279624		4.18504054		-0.00048131		 0.00042801		 0.00049003
O		5.84280843		0.47061371		0.38373084		 0.00048684		 0.00033082		 0.00017276
O		1.32330863		4.69112508		5.40086914		 0.00048684		-0.00033082		-0.00017276
O		1.32330863		5.12394312		2.99075910		-0.00048131		-0.00042801		-0.00049003
Si		2.68187118		0.82694011		0.47148687		-0.00052380		-0.00007108		 0.00035921
Si		2.68187118		8.38656640		4.16038757		 0.00016478		 0.00030135		 0.00015984
Si		7.20137097		5.47017205		3.01541207		 0.00016478		-0.00030135		-0.00015984
Si		7.20137097		4.33479868		5.31311311		-0.00052380		 0.00007108		-0.00035921
Si		6.34447381		8.61780118		5.65326693		 0.00002618		-0.00012829		 0.00016715
Si		6.34447381		1.07382682		1.96687004		 0.00037494		-0.00020388		 0.00022312
Si		1.82497402		4.08791287		3.81773084		 0.00037494		 0.00020388		-0.00022312
Si		1.82497402		5.23893636		1.52253361		 0.00002618		 0.00012829		-0.00016715
Mg		9.01640118		1.41858511		3.77741871		-0.00022577		-0.00013476		-0.00027371
Mg		9.01640118		8.03528557		2.35673023		-0.00007321		 0.00035457		-0.00065342
Mg		4.49690139		5.82145288		4.81906941		-0.00007321		-0.00035457		 0.00065342
Mg		4.49690139		3.74315458		2.00718217		-0.00022577		 0.00013476		 0.00027371
Mg		0.05423400		2.45931926		1.46011209		-0.00027621		-0.00034404		 0.00035421
Mg		0.05423400		6.99308711		4.66487583		-0.00025781		-0.00012213		-0.00003548
Mg		4.57373379		6.86365225		2.51092381		-0.00025781		 0.00012213		 0.00003548
Mg		4.57373379		2.70242044		4.32448789		-0.00027621		 0.00034404		-0.00035421
