# total energy = -24707.6465935 eV

CRYSTAL
PRIMVEC
		9.03899958		0.00000000		0.00000000
		0.00000000		8.69500237		-1.39120146
		0.00000000		-0.81424212		5.08900196
PRIMECORD
   40 1
O		1.09371895		0.70328931		0.17954165		 0.00054821		-0.00008463		-0.00033882
O		1.09371895		7.48867286		1.57324149		-0.00029454		-0.00015285		 0.00001143
O		5.61321874		4.73958678		1.42895827		-0.00029454		 0.00015285		-0.00001143
O		5.61321874		2.82997066		4.21385777		 0.00054821		 0.00008463		 0.00033882
O		3.40679894		2.05298549		0.19516285		-0.00051279		-0.00002793		-0.00046453
O		3.40679894		6.06292614		2.03293428		-0.00016367		 0.00012615		-0.00046089
O		7.92629783		6.16533258		0.96926729		-0.00016367		-0.00012615		 0.00046089
O		7.92629783		1.48027357		4.19823657		-0.00051279		 0.00002793		 0.00046453
O		3.23415405		8.13029449		0.06775996		 0.00026011		-0.00061553		-0.00004516
O		3.23415405		-0.29187562		3.89466810		 0.00028130		 0.00015025		-0.00058951
O		7.75365384		3.82513559		0.49873223		 0.00028130		-0.00015025		 0.00058951
O		7.75365384		4.09796424		2.93443981		 0.00026011		 0.00061553		 0.00004516
O		7.93985633		7.18860428		3.18920130		 0.00036837		 0.00028099		-0.00079122
O		7.93985633		0.48843229		1.78186703		-0.00027957		-0.00021819		-0.00017518
O		3.42035744		3.04482768		2.61153330		-0.00027957		 0.00021819		 0.00017518
O		3.42035744		5.03965444		-0.18700063		 0.00036837		-0.00028099		 0.00079122
O		5.61683344		5.83019541		3.82109516		 0.00035948		-0.00011339		-0.00063243
O		5.61683344		1.71070027		2.00085397		 0.00021679		 0.00021871		 0.00037278
O		1.09733455		1.82255970		2.39254545		 0.00021679		-0.00021871		-0.00037278
O		1.09733455		6.39806242		-0.81889540		 0.00035948		 0.00011339		 0.00063243
O		5.84280843		7.81726490		1.53703126		 0.00048677		-0.00033080		 0.00017318
O		5.84280843		0.36932268		0.24934080		-0.00048070		-0.00042832		 0.00049016
O		1.32330863		3.16393729		4.14405862		-0.00048070		 0.00042832		-0.00049016
O		1.32330863		4.41099383		1.46516850		 0.00048677		 0.00033080		-0.00017318
Si		2.68187118		0.71555161		0.22468784		 0.00016513		-0.00030150		 0.00015905
Si		2.68187118		7.46093849		1.62478729		-0.00052443		 0.00007089		 0.00035902
Si		7.20137097		4.76731933		1.37741337		-0.00052443		-0.00007089		-0.00035902
Si		7.20137097		2.81770655		4.16871158		 0.00016513		 0.00030150		-0.00015905
Si		6.34447381		7.21405268		3.12016955		 0.00037538		 0.00020266		 0.00022298
Si		6.34447381		0.48431683		1.71756630		 0.00002642		 0.00012794		 0.00016684
Si		1.82497402		3.04894224		2.67583403		 0.00002642		-0.00012794		-0.00016684
Si		1.82497402		5.01420695		-0.11796889		 0.00037538		-0.00020266		-0.00022298
Mg		9.01640118		0.25259394		3.51002974		-0.00007314		-0.00035438		-0.00065388
Mg		9.01640118		7.68353470		-0.15828192		-0.00022549		 0.00013521		-0.00027513
Mg		4.49690139		4.54472493		3.16048168		-0.00022549		-0.00013521		 0.00027513
Mg		4.49690139		3.28066603		0.88336968		-0.00007314		 0.00035438		 0.00065388
Mg		0.05423400		2.10903271		0.72917610		-0.00025754		 0.00012185		-0.00003536
Mg		0.05423400		5.82856115		2.61341160		-0.00027610		 0.00034396		 0.00035467
Mg		4.57373379		6.39969848		0.38878816		-0.00027610		-0.00034396		-0.00035467
Mg		4.57373379		1.42422635		3.66422513		-0.00025754		-0.00012185		 0.00003536
