# total energy = -49433.0810087 eV

CRYSTAL
PRIMVEC
		18.23299940		0.00000000		0.00000000
		0.00000000		8.81910125		0.00000000
		0.00000000		0.00000000		5.05068670
PRIMECORD
   80 1
Mg		6.86107767		5.76857458		4.37541662		 0.00047813		-0.00005578		-0.00054922
Mg		11.37192172		3.05052666		0.67527737		-0.00047813		 0.00005578		 0.00054922
Mg		2.25542203		3.05052666		1.85006963		-0.00047813		 0.00005578		-0.00054922
Mg		15.97757737		5.76857458		3.20062618		 0.00047813		-0.00005578		 0.00054922
Mg		11.37192172		1.35902214		3.20062618		-0.00047813		-0.00005578		 0.00054922
Mg		6.86107767		7.46007729		1.85006963		 0.00047813		 0.00005578		-0.00054922
Mg		15.97757737		7.46007729		0.67527737		 0.00047813		 0.00005578		 0.00054922
Mg		2.25542203		1.35902214		4.37541662		-0.00047813		-0.00005578		-0.00054922
Mg		6.87201747		4.29666648		1.81269563		 0.00013275		-0.00019921		-0.00014756
Mg		11.36098192		4.52243295		3.23800019		-0.00013275		 0.00019921		 0.00014756
Mg		2.24448223		4.52243295		4.33804262		-0.00013275		 0.00019921		-0.00014756
Mg		15.98851717		4.29666648		0.71265319		 0.00013275		-0.00019921		 0.00014756
Mg		11.36098192		8.70621528		0.71265319		-0.00013275		-0.00019921		 0.00014756
Mg		6.87201747		0.11288415		4.33804262		 0.00013275		 0.00019921		-0.00014756
Mg		15.98851717		0.11288415		3.23800019		 0.00013275		 0.00019921		 0.00014756
Mg		2.24448223		8.70621528		1.81269563		-0.00013275		-0.00019921		-0.00014756
Si		4.95025934		3.01436880		0.25556466		 0.00000774		 0.00037730		-0.00063817
Si		13.28274006		5.80473244		4.79512933		-0.00000774		-0.00037730		 0.00063817
Si		4.16624036		5.80473244		2.78091348		-0.00000774		-0.00037730		-0.00063817
Si		14.06675903		3.01436880		2.26978234		 0.00000774		 0.00037730		 0.00063817
Si		13.28274006		7.42391760		2.26978234		-0.00000774		 0.00037730		 0.00063817
Si		4.95025934		1.39518182		2.78091348		 0.00000774		-0.00037730		-0.00063817
Si		14.06675903		1.39518182		4.79512933		 0.00000774		-0.00037730		 0.00063817
Si		4.16624036		7.42391760		0.25556466		-0.00000774		 0.00037730		-0.00063817
Si		8.63514851		2.97556351		4.03096062		 0.00061814		 0.00000289		 0.00014770
Si		9.59785088		5.84353591		1.01973519		-0.00061814		-0.00000289		-0.00014770
Si		0.48135118		5.84353591		1.50561180		-0.00061814		-0.00000289		 0.00014770
Si		17.75164821		2.97556351		3.54508219		 0.00061814		 0.00000289		-0.00014770
Si		9.59785088		7.38511413		3.54508219		-0.00061814		 0.00000289		-0.00014770
Si		8.63514851		1.43398529		1.50561180		 0.00061814		-0.00000289		 0.00014770
Si		17.75164821		1.43398529		1.01973519		 0.00061814		-0.00000289		-0.00014770
Si		0.48135118		7.38511413		4.03096062		-0.00061814		 0.00000289		 0.00014770
O		3.34575539		3.00466702		0.17172386		-0.00069029		-0.00052709		-0.00000790
O		14.88724401		5.81443240		4.87897196		 0.00069029		 0.00052709		 0.00000790
O		5.77074431		5.81443240		2.69707085		 0.00069029		 0.00052709		-0.00000790
O		12.46225509		3.00466702		2.35362314		-0.00069029		-0.00052709		 0.00000790
O		14.88724401		7.41421765		2.35362314		 0.00069029		-0.00052709		 0.00000790
O		3.34575539		1.40488360		2.69707085		-0.00069029		 0.00052709		-0.00000790
O		12.46225509		1.40488360		4.87897196		-0.00069029		 0.00052709		 0.00000790
O		5.77074431		7.41421765		0.17172386		 0.00069029		-0.00052709		-0.00000790
O		5.67775601		4.43512605		0.21718055		-0.00009062		 0.00039394		-0.00024073
O		12.55524338		4.38397519		4.83351526		 0.00009062		-0.00039394		 0.00024073
O		3.43874369		4.38397519		2.74252754		 0.00009062		-0.00039394		-0.00024073
O		14.79425571		4.43512605		2.30816827		-0.00009062		 0.00039394		 0.00024073
O		12.55524338		0.02557543		2.30816827		 0.00009062		 0.00039394		 0.00024073
O		5.67775601		8.79352399		2.74252754		-0.00009062		-0.00039394		-0.00024073
O		14.79425571		8.79352399		4.83351526		-0.00009062		-0.00039394		 0.00024073
O		3.43874369		0.02557543		0.21718055		 0.00009062		 0.00039394		-0.00024073
O		5.51548232		1.96136750		4.20217760		 0.00039968		-0.00026245		-0.00066261
O		12.71751708		6.85773192		0.84851639		-0.00039968		 0.00026245		 0.00066261
O		3.60101738		6.85773192		1.67683061		-0.00039968		 0.00026245		-0.00066261
O		14.63198202		1.96136750		3.37386338		 0.00039968		-0.00026245		 0.00066261
O		12.71751708		6.37091813		3.37386338		-0.00039968		-0.00026245		 0.00066261
O		5.51548232		2.44818129		1.67683061		 0.00039968		 0.00026245		-0.00066261
O		14.63198202		2.44818129		0.84851639		 0.00039968		 0.00026245		 0.00066261
O		3.60101738		6.37091813		4.20217760		-0.00039968		-0.00026245		-0.00066261
O		10.25059226		3.01084072		4.03045557		 0.00058359		 0.00000852		 0.00046787
O		7.98240714		5.80825871		1.02024024		-0.00058359		-0.00000852		-0.00046787
O		17.09890683		5.80825871		1.50510675		-0.00058359		-0.00000852		 0.00046787
O		1.13409256		3.01084072		3.54558724		 0.00058359		 0.00000852		-0.00046787
O		7.98240714		7.42039134		3.54558724		-0.00058359		 0.00000852		-0.00046787
O		10.25059226		1.39870808		1.50510675		 0.00058359		-0.00000852		 0.00046787
O		1.13409256		1.39870808		1.02024024		 0.00058359		-0.00000852		-0.00046787
O		17.09890683		7.42039134		4.03045557		-0.00058359		 0.00000852		 0.00046787
O		7.88394894		4.26491735		3.48498075		-0.00027512		 0.00028063		 0.00003990
O		10.34905046		4.55418207		1.56571506		 0.00027512		-0.00028063		-0.00003990
O		1.23255076		4.55418207		0.95963193		 0.00027512		-0.00028063		 0.00003990
O		17.00044864		4.26491735		4.09106206		-0.00027512		 0.00028063		-0.00003990
O		10.34905046		8.67446615		4.09106206		 0.00027512		 0.00028063		-0.00003990
O		7.88394894		0.14463327		0.95963193		-0.00027512		-0.00028063		 0.00003990
O		17.00044864		0.14463327		1.56571506		-0.00027512		-0.00028063		-0.00003990
O		1.23255076		8.67446615		3.48498075		 0.00027512		 0.00028063		 0.00003990
O		8.17385363		1.72060622		3.04556911		-0.00062445		 0.00046101		-0.00077708
O		10.05914577		7.09849320		2.00512670		 0.00062445		-0.00046101		 0.00077708
O		0.94264607		7.09849320		0.52022212		 0.00062445		-0.00046101		-0.00077708
O		17.29035333		1.72060622		4.53047370		-0.00062445		 0.00046101		 0.00077708
O		10.05914577		6.13015684		4.53047370		 0.00062445		 0.00046101		 0.00077708
O		8.17385363		2.68894441		0.52022212		-0.00062445		-0.00046101		-0.00077708
O		17.29035333		2.68894441		2.00512670		-0.00062445		-0.00046101		 0.00077708
O		0.94264607		6.13015684		3.04556911		 0.00062445		 0.00046101		-0.00077708
