# total energy = -20638.6337812 eV	

CRYSTAL	
PRIMVEC	
		10.71148053		0.00000000		0.00000000	
		0.00000000		5.98347587		0.00000000	
		0.00000000		0.00000000		4.75534036	
PRIMCOORD
   28 1	
Mg		0.00000000		0.00000000		0.00000000		-0.00000000		0.00000000		0.00000000	
Mg		5.35574026		0.00000000		2.37767018		0.00000000		0.00000000		0.00000000	
Mg		0.00000000		2.99174008		0.00000000		0.00000000		0.00000000		0.00000000	
Mg		5.35574026		2.99174008		2.37767018		-0.00000000		0.00000000		0.00000000	
Mg		2.97029355		1.49587004		4.71491951		 0.00054693		0.00000000		 0.00019745	
Mg		7.74118698		4.48761011		0.04041977		-0.00054693		0.00000000		-0.00019745	
Mg		2.38544671		4.48761011		2.33725041		-0.00054693		0.00000000		 0.00019745	
Mg		8.32603381		1.49587004		2.41808995		 0.00054693		0.00000000		-0.00019745	
Si		1.00687917		1.49587004		2.02767684		-0.00059154		0.00000000		 0.00064772	
Si		9.70460136		4.48761011		2.72766245		 0.00059154		0.00000000		-0.00064772	
Si		4.34886109		4.48761011		4.40534701		 0.00059154		0.00000000		 0.00064772	
Si		6.36261836		1.49587004		0.34999334		-0.00059154		0.00000000		-0.00064772	
O		0.98117162		1.49587004		3.63926193		 0.00028947		0.00000000		-0.00020943	
O		9.73030891		4.48761011		1.11607843		-0.00028947		0.00000000		 0.00020943	
O		4.37456865		4.48761011		1.26159175		-0.00028947		0.00000000		-0.00020943	
O		6.33691188		1.49587004		3.49374754		 0.00028947		0.00000000		 0.00020943	
O		4.78696065		1.49587004		1.05140572		 0.00073581		0.00000000		 0.00002344	
O		5.92451988		4.48761011		3.70393463		-0.00073581		0.00000000		-0.00002344	
O		0.56877962		4.48761011		3.42907590		-0.00073581		0.00000000		 0.00002344	
O		10.14270091		1.49587004		1.32626446		 0.00073581		0.00000000		-0.00002344	
O		1.74275788		0.19865190		1.32103297		 0.00037782		 0.00094182		 0.00056334	
O		8.96872264		5.78482825		3.43430632		-0.00037782		-0.00094182		-0.00056334	
O		3.61298238		5.78482825		3.69870315		-0.00037782		-0.00094182		 0.00056334	
O		7.09849814		0.19865190		1.05663721		 0.00037782		 0.00094182		-0.00056334	
O		8.96872264		3.19039198		3.43430632		-0.00037782		 0.00094182		-0.00056334	
O		1.74275788		2.79308817		1.32103297		 0.00037782		-0.00094182		 0.00056334	
O		7.09849814		2.79308817		1.05663721		 0.00037782		-0.00094182		-0.00056334	
O		3.61298238		3.19039198		3.69870315		-0.00037782		 0.00094182		 0.00056334	
