# total energy = -20638.2339984 eV	

CRYSTAL	
PRIMVEC	
		9.69133960		0.00000000		0.00000000	
		0.00000000		5.98348153		0.00000000	
		0.00000000		0.00000000		4.75533682	
PRIMCOORD
   28 1	
Mg		0.00000000		0.00000000		0.00000000		0.00000000		0.00000000		0.00000000	
Mg		4.84566980		0.00000000		2.37767035		0.00000000		-0.00000000		0.00000000	
Mg		0.00000000		2.99173979		0.00000000		0.00000000		0.00000000		0.00000000	
Mg		4.84566980		2.99173979		2.37767035		0.00000000		-0.00000000		0.00000000	
Mg		2.68740847		1.49586990		4.71492006		-0.00039548		0.00000000		-0.00038039	
Mg		7.00393113		4.48760969		0.04041967		 0.00039548		0.00000000		 0.00038039	
Mg		2.15826133		4.48760969		2.33724971		 0.00039548		0.00000000		-0.00038039	
Mg		7.53307730		1.49586990		2.41809002		-0.00039548		-0.00000000		 0.00038039	
Si		0.91098592		1.49586990		2.02767731		 0.00084439		0.00000000		 0.00002470	
Si		8.78035368		4.48760969		2.72766242		-0.00084439		0.00000000		-0.00002470	
Si		3.93468388		4.48760969		4.40534669		-0.00084439		0.00000000		 0.00002470	
Si		5.75665572		1.49586990		0.34999304		 0.00084439		0.00000000		-0.00002470	
O		0.88772671		1.49586990		3.63926180		 0.00058822		0.00000000		-0.00035226	
O		8.80361289		4.48760969		1.11607793		-0.00058822		0.00000000		 0.00035226	
O		3.95794309		4.48760969		1.26159242		-0.00058822		0.00000000		-0.00035226	
O		5.73339651		1.49586990		3.49374828		 0.00058822		0.00000000		 0.00035226	
O		4.33105967		1.49586990		1.05140568		-0.00063922		0.00000000		 0.00053437	
O		5.36027993		4.48760969		3.70393502		 0.00063922		0.00000000		-0.00053437	
O		0.51461013		4.48760969		3.42907603		 0.00063922		0.00000000		 0.00053437	
O		9.17672947		1.49586990		1.32626370		-0.00063922		0.00000000		-0.00053437	
O		1.57678095		0.19865211		1.32103328		 0.00015314		 0.00004435		 0.00016722	
O		8.11455865		5.78482748		3.43430645		-0.00015314		-0.00004435		-0.00016722	
O		3.26888885		5.78482748		3.69870267		-0.00015314		-0.00004435		 0.00016722	
O		6.42245075		0.19865211		1.05663707		 0.00015314		 0.00004435		-0.00016722	
O		8.11455865		3.19039190		3.43430645		-0.00015314		 0.00004435		-0.00016722	
O		1.57678095		2.79308768		1.32103328		 0.00015314		-0.00004435		 0.00016722	
O		6.42245075		2.79308768		1.05663707		 0.00015314		-0.00004435		-0.00016722	
O		3.26888885		3.19039190		3.69870267		-0.00015314		 0.00004435		 0.00016722	
