# total energy = -24715.36241 eV

CRYSTAL
PRIMVEC
		9.03899958		0.00000000		0.00000000
		0.00000000		8.69500237		0.00000000
		0.00000000		0.00000000		4.96177804
PRIMECORD
   40 1
O		1.09371895		0.75124753		0.29224893		 0.00025058		-0.00050416		-0.00024420
O		1.09371895		7.94375033		2.77313615		 0.00025058		 0.00050416		-0.00024420
O		5.61321874		5.09874781		2.18863918		 0.00025058		-0.00050416		 0.00024420
O		5.61321874		3.59625185		4.66952639		 0.00025058		 0.00050416		 0.00024420
O		3.40679894		2.13896988		0.52396278		 0.00011426		-0.00017994		-0.00057601
O		3.40679894		6.55602978		3.00485090		 0.00011426		 0.00017994		-0.00057601
O		7.92629783		6.48646926		1.95692352		 0.00011426		-0.00017994		 0.00057601
O		7.92629783		2.20852950		4.43781164		 0.00011426		 0.00017994		 0.00057601
O		3.23415405		8.35502481		1.36945002		-0.00023123		-0.00041624		-0.00054925
O		3.23415405		0.33997395		3.85033813		-0.00023123		 0.00041624		-0.00054925
O		7.75365384		4.00752453		1.11143810		-0.00023123		-0.00041624		 0.00054925
O		7.75365384		4.68747423		3.59232441		-0.00023123		 0.00041624		 0.00054925
O		7.93985633		7.90114591		4.34204977		-0.00035342		 0.00056631		 0.00007665
O		7.93985633		0.79385375		1.86116165		-0.00035342		-0.00056631		 0.00007665
O		3.42035744		3.55364563		3.10061277		-0.00035342		 0.00056631		-0.00007665
O		3.42035744		5.14135313		0.61972556		-0.00035342		-0.00056631		-0.00007665
O		5.61683344		6.61080793		4.75685398		 0.00043477		-0.00056089		-0.00075593
O		5.61683344		2.08419173		2.27596586		 0.00043477		 0.00056089		-0.00075593
O		1.09733455		2.26330765		2.68580856		 0.00043477		-0.00056089		 0.00075593
O		1.09733455		6.43169111		0.20492135		 0.00043477		 0.00056089		 0.00075593
O		5.84280843		8.27503057		2.78951029		-0.00024450		 0.00011118		 0.00033843
O		5.84280843		0.41996909		0.30862218		-0.00024450		-0.00011118		 0.00033843
O		1.32330863		3.92753119		4.65315315		-0.00024450		 0.00011118		-0.00033843
O		1.32330863		4.76746847		2.17226503		-0.00024450		-0.00011118		-0.00033843
Si		2.68187118		0.77124631		0.33938461		 0.00007269		-0.00013477		-0.00049259
Si		2.68187118		7.92375245		2.82027272		 0.00007269		 0.00013477		-0.00049259
Si		7.20137097		5.11874569		2.14150170		 0.00007269		-0.00013477		 0.00049259
Si		7.20137097		3.57625307		4.62238982		 0.00007269		 0.00013477		 0.00049259
Si		6.34447381		7.91592648		4.27704942		-0.00018629		-0.00003479		 0.00026196
Si		6.34447381		0.77907228		1.79616311		-0.00018629		 0.00003479		 0.00026196
Si		1.82497402		3.56842801		3.16561312		-0.00018629		-0.00003479		-0.00026196
Si		1.82497402		5.12657166		0.68472501		-0.00018629		 0.00003479		-0.00026196
Mg		9.01640118		0.83558862		3.55263055		 0.00016781		 0.00037531		-0.00040727
Mg		9.01640118		7.85940923		1.07174424		 0.00016781		-0.00037531		-0.00040727
Mg		4.49690139		5.18308891		3.89003199		 0.00016781		 0.00037531		 0.00040727
Mg		4.49690139		3.51190985		1.40914388		 0.00016781		-0.00037531		 0.00040727
Mg		0.05423400		2.28417598		1.06727807		-0.00002467		 0.00022020		-0.00011670
Mg		0.05423400		6.41082368		3.54816528		-0.00002467		-0.00022020		-0.00011670
Mg		4.57373379		6.63167536		1.41361005		-0.00002467		 0.00022020		 0.00011670
Mg		4.57373379		2.06332430		3.89449726		-0.00002467		-0.00022020		 0.00011670
