# total energy = -66811.3169289 eV

CRYSTAL
PRIMVEC
		18.34339340		0.00000000		1.46746779
		0.00000000		6.73130577		0.00000000
		0.87074601		0.00000000		10.88439879
PRIMECORD
   112 1
Ca		14.37357513		6.72409770		3.65436376		 0.00007265		-0.00019191		-0.00039046
Ca		4.84057533		0.00720254		8.69750834		-0.00007265		 0.00019191		 0.00039046
Ca		4.37312027		0.00720254		2.85432745		 0.00027973		 0.00010204		-0.00006680
Ca		14.84103019		6.72409770		9.49754466		-0.00027973		-0.00010204		 0.00006680
Ca		13.57689902		3.35844666		3.98904468		-0.00007265		-0.00019191		 0.00039046
Ca		5.63725144		3.37285359		8.36282742		 0.00007265		 0.00019191		-0.00039046
Ca		5.23395312		3.37285359		3.32160953		-0.00027973		 0.00010204		 0.00006680
Ca		13.98019733		3.35844666		9.03026442		 0.00027973		-0.00010204		-0.00006680
Ca		8.20734153		1.06469025		8.75293518		-0.00008122		-0.00022434		 0.00008322
Ca		11.00680708		5.66660999		3.59893877		 0.00008122		 0.00022434		-0.00008322
Ca		11.43981543		5.66660999		9.01153118		-0.00017182		 0.00002881		 0.00044147
Ca		7.77433502		1.06469025		3.34033909		 0.00017182		-0.00002881		-0.00044147
Ca		2.27048523		4.43033946		8.30740243		 0.00008122		-0.00022434		-0.00008322
Ca		16.94366522		2.30096079		4.04446968		-0.00008122		 0.00022434		 0.00008322
Ca		17.38141025		2.30096079		9.51627606		 0.00017182		 0.00002881		-0.00044147
Ca		1.83274021		4.43033946		2.83559605		-0.00017182		-0.00002881		 0.00044147
Ca		6.10413235		5.40388826		0.48833029		 0.00003972		-0.00008549		 0.00043543
Ca		12.23926656		1.32741198		0.97914118		-0.00003972		 0.00008549		-0.00043543
Ca		3.50294287		2.03823722		5.68760668		-0.00003972		-0.00008549		-0.00043543
Ca		15.71120758		4.69306118		6.66426727		 0.00003972		 0.00008549		 0.00043543
Ca		12.78562021		1.15643712		6.43021954		-0.00009229		-0.00008763		-0.00011795
Ca		6.42853024		5.57486128		5.92165256		 0.00009229		 0.00008763		 0.00011795
Ca		15.16485393		4.52208633		1.21318706		 0.00009229		-0.00008763		 0.00011795
Ca		3.17854315		2.20921208		0.25428441		-0.00009229		 0.00008763		-0.00011795
Ca		9.17170038		3.36564920		0.73373574		0.00000000		-0.00000000		-0.00000000
Ca		0.43537669		0.00000000		5.44219940		0.00000000		0.00000000		0.00000000
Ca		9.60707523		3.36564920		6.17593513		-0.00000000		0.00000000		0.00000000
Ca		0.00000000		0.00000000		0.00000000		0.00000000		0.00000000		-0.00000000
Si		8.34379975		4.84249650		8.79780847		 0.00007856		 0.00046373		-0.00000206
Si		10.87034886		1.88880375		3.55406364		-0.00007856		-0.00046373		 0.00000206
Si		11.30882629		1.88880375		9.03501029		-0.00022425		-0.00008372		-0.00004824
Si		7.90532416		4.84249650		3.31686181		 0.00022425		 0.00008372		 0.00004824
Si		2.13402885		1.47684729		8.26252730		-0.00007856		 0.00046373		 0.00000206
Si		17.08012344		5.25445295		4.08934481		 0.00007856		-0.00046373		-0.00000206
Si		17.51239939		5.25445295		9.49279694		 0.00022425		-0.00008372		 0.00004824
Si		1.70175106		1.47684729		2.85907516		-0.00022425		 0.00008372		-0.00004824
Si		12.61227334		4.95087142		6.41635179		 0.00016340		-0.00016019		-0.00008491
Si		6.60187711		1.78042883		5.93552031		-0.00016340		 0.00016019		 0.00008491
Si		15.33819896		1.58522037		1.22705665		-0.00016340		-0.00016019		 0.00008491
Si		3.00519811		5.14607803		0.24041666		 0.00016340		 0.00016019		-0.00008491
Si		6.20337068		1.90361184		0.49627076		 0.00052384		 0.00016494		 0.00006396
Si		12.14002824		4.82768840		0.97120255		-0.00052384		-0.00016494		-0.00006396
Si		3.40370455		5.26926105		5.67966621		-0.00052384		 0.00016494		-0.00006396
Si		15.81044590		1.46203736		6.67220589		 0.00052384		-0.00016494		 0.00006396
Mg		9.60707523		0.00000000		6.17593513		-0.00000000		0.00000000		0.00000000
Mg		0.00000000		3.36564920		0.00000000		0.00000000		0.00000000		0.00000000
Mg		9.17170038		0.00000000		0.73373574		-0.00000000		0.00000000		0.00000000
Mg		0.43537669		3.36564920		5.44219940		0.00000000		0.00000000		0.00000000
O		5.40197078		1.72994477		1.75155609		 0.00086194		-0.00036775		-0.00028610
O		13.81217968		5.00135547		10.60031602		-0.00086194		 0.00036775		 0.00028610
O		13.15389216		5.00135547		2.37170913		-0.00008423		-0.00018843		-0.00001928
O		6.06026014		1.72994477		9.98016297		 0.00008423		 0.00018843		 0.00001928
O		4.20510445		5.09559397		4.42437905		-0.00086194		-0.00036775		 0.00028610
O		15.00904600		1.63570627		7.92749122		 0.00086194		 0.00036775		-0.00028610
O		14.79658199		1.63570627		5.27169931		 0.00008423		-0.00018843		 0.00001928
O		4.41756846		5.09559397		7.08017463		-0.00008423		 0.00018843		-0.00001928
O		13.11282624		5.70410407		5.16187247		-0.00011020		-0.00040035		-0.00006765
O		6.10132421		1.02719617		7.19000147		 0.00011020		 0.00040035		 0.00006765
O		5.89286631		1.02719617		4.58427406		-0.00003076		-0.00061568		 0.00017620
O		13.32128414		5.70410407		7.76759621		 0.00003076		 0.00061568		-0.00017620
O		14.83764606		2.33845303		2.48153597		 0.00011020		-0.00040035		 0.00006765
O		4.37650439		4.39284537		9.87033613		-0.00011020		 0.00040035		-0.00006765
O		3.71421076		4.39284537		1.59166107		 0.00003076		-0.00061568		-0.00017620
O		15.49993969		2.33845303		10.76021103		-0.00003076		 0.00061568		 0.00017620
O		9.47532424		5.25647165		10.06519127		 0.00069389		-0.00016797		-0.00033090
O		9.73882621		1.47482859		2.28668083		-0.00069389		 0.00016797		 0.00033090
O		10.36681299		1.47482859		10.13651008		 0.00038129		-0.00010852		-0.00007579
O		8.84733746		5.25647165		2.21536203		-0.00038129		 0.00010852		 0.00007579
O		1.00250436		1.89082245		6.99514449		-0.00069389		-0.00016797		 0.00033090
O		18.21164793		4.84047780		5.35672761		 0.00069389		 0.00016797		-0.00033090
O		18.45441268		4.84047780		8.39129716		-0.00038129		-0.00010852		 0.00007579
O		0.75973777		1.89082245		3.96057310		 0.00038129		 0.00010852		-0.00007579
O		6.90171384		5.45302529		9.05468572		 0.00025059		 0.00054097		-0.00004119
O		12.31243661		1.27827311		3.29718639		-0.00025059		-0.00054097		 0.00004119
O		12.81085488		1.27827311		9.52741663		-0.00019378		-0.00022168		 0.00036585
O		6.40329557		5.45302529		2.82445547		 0.00019378		 0.00022168		-0.00036585
O		3.57611476		2.08737609		8.00565005		-0.00025059		 0.00054097		 0.00004119
O		15.63803569		4.64392415		4.34622022		 0.00025059		-0.00054097		-0.00004119
O		16.01037079		4.64392415		9.00039060		 0.00019378		-0.00022168		-0.00036585
O		3.20377966		2.08737609		3.35148150		-0.00019378		 0.00022168		 0.00036585
O		6.89711702		3.33805172		0.55176936		-0.00016927		 0.00051238		-0.00042678
O		11.44628005		3.39324853		0.91570211		 0.00016927		-0.00051238		 0.00042678
O		2.70995820		6.70370092		5.62416761		 0.00016927		 0.00051238		 0.00042678
O		16.50419225		0.02759749		6.72770633		-0.00016927		-0.00051238		-0.00042678
O		8.17446635		3.29497079		8.43083755		 0.00005092		 0.00002194		 0.00037644
O		11.03968410		3.43632946		3.92103456		-0.00005092		-0.00002194		-0.00037644
O		11.42124781		3.43632946		8.69057999		 0.00008555		-0.00017003		 0.00001853
O		7.79290264		3.29497079		3.66129211		-0.00008555		 0.00017003		-0.00001853
O		2.30336041		6.66061999		8.62950006		-0.00005092		 0.00002194		-0.00037644
O		16.91079004		0.07067842		3.72237205		 0.00005092		-0.00002194		 0.00037644
O		17.39997787		0.07067842		9.83722909		-0.00008555		-0.00017003		-0.00001853
O		1.81417258		6.66061999		2.51464302		 0.00008555		 0.00017003		 0.00001853
O		7.29700360		0.70342027		0.58375941		 0.00024245		-0.00025782		 0.00021208
O		11.04639531		6.02787813		0.88371207		-0.00024245		 0.00025782		-0.00021208
O		2.31007162		4.06907132		5.59217573		-0.00024245		-0.00025782		-0.00021208
O		16.90407883		2.66222893		6.75969638		 0.00024245		 0.00025782		 0.00021208
O		11.00851111		5.19521690		6.28805118		 0.00035506		 0.00088793		 0.00053351
O		8.20563934		1.53608334		6.06382092		-0.00035506		-0.00088793		-0.00053351
O		16.94196303		1.82956770		1.35535726		-0.00035506		 0.00088793		-0.00053351
O		1.40143588		4.90173255		0.11211421		 0.00035506		-0.00088793		 0.00053351
O		13.17670144		3.45046404		6.46150663		 0.00014366		-0.00045430		-0.00036156
O		6.03744901		3.28083621		5.89036548		-0.00014366		 0.00045430		 0.00036156
O		14.77377270		0.08481484		1.18190182		-0.00014366		-0.00045430		 0.00036156
O		3.56962437		6.64648541		0.28556966		 0.00014366		 0.00045430		-0.00036156
O		8.69819842		5.66102314		7.50481559		-0.00049200		 0.00037526		-0.00010788
O		10.51595203		1.07027710		4.84705651		 0.00049200		-0.00037526		 0.00010788
O		10.74165261		1.07027710		7.66829347		-0.00028347		 0.00007269		-0.00037061
O		8.47249968		5.66102314		4.68358047		 0.00028347		-0.00007269		 0.00037061
O		1.77963018		2.29537210		9.55552017		 0.00049200		 0.00037526		 0.00010788
O		17.43452027		4.43592630		2.79635193		-0.00049200		-0.00037526		-0.00010788
O		18.07957307		4.43592630		10.85951560		 0.00028347		 0.00007269		 0.00037061
O		1.13457738		2.29537210		1.49235650		-0.00028347		-0.00007269		-0.00037061
