# total energy = -9215.21972788 eV

CRYSTAL
PRIMVEC
		5.32599971		0.00000000		0.00000000
		-2.66299986		4.61244890		-0.18449796
		0.00000000		-0.29151859		7.28800214
PRIMECORD
   18 1
Mg		1.76716670		-0.13264189		3.31603985		 0.00039019		-0.00054712		 0.00013815
Mg		-0.88358282		1.39776974		3.25482388		-0.00034691		-0.00005650		 0.00050939
Mg		1.77941704		2.94939910		3.19275894		-0.00009665		-0.00066624		 0.00019020
Si		0.00000000		3.05339457		0.41631316		-0.00009509		-0.00030110		-0.00018609
Si		2.66299986		1.51591107		0.47781301		-0.00012739		-0.00034523		-0.00023040
H		3.10505783		-0.21339310		5.33481584		 0.00014456		-0.00004014		-0.00057611
H		-1.55252892		2.47566687		5.22725355		 0.00004541		 0.00016500		-0.00070070
H		1.11047094		1.71000009		5.25787964		 0.00002424		-0.00015339		-0.00011007
H		0.00000000		-0.05742919		1.43573613		-0.00006303		 0.00012895		 0.00049562
O		0.00000000		2.99010571		1.99853772		-0.00008655		 0.00035837		-0.00030027
O		2.66299986		1.45262168		2.06003704		-0.00012178		 0.00033863		-0.00025414
O		2.70028185		-0.28918794		7.22969575		 0.00009536		-0.00031478		-0.00013752
O		-1.35014093		2.04932485		7.13615469		-0.00029600		-0.00004066		-0.00004492
O		1.31285893		1.98475084		7.13873780		 0.00004548		-0.00009651		-0.00005732
O		3.53646381		-0.17141411		4.28534357		-0.00016597		 0.00005489		 0.00051331
O		-1.76823190		2.89125409		4.16283653		 0.00021850		 0.00023439		 0.00074922
O		0.89476795		1.37836979		4.22335266		 0.00046147		 0.00042001		-0.00002235
O		0.00000000		-0.08862197		2.21555197		-0.00002582		 0.00086144		 0.00002399
