# total energy = -13384.4946889 eV

CRYSTAL
PRIMVEC
		3.05299981		0.00000000		0.12211987
		-1.52649838		2.64397707		-0.06105994
		0.80499874		0.00000000		20.12499895
PRIMECORD
   18 1
O		0.25059689		0.00000000		6.26491250		-0.00024056		-0.00047344		-0.00027919
O		0.55440307		0.00000000		13.86008553		 0.00024056		 0.00047344		 0.00027919
O		1.87120072		0.88132488		8.67858417		-0.00002888		-0.00025344		-0.00020864
O		0.46029884		1.76264975		11.50747379		 0.00002888		 0.00025344		 0.00020864
O		1.58429877		0.88132488		1.50603487		-0.00044268		-0.00042358		 0.00015388
O		0.74720079		1.76264975		18.68002310		 0.00044268		 0.00042358		-0.00015388
O		0.15190400		1.76264975		3.79758759		-0.00007143		 0.00014305		 0.00011884
O		2.17959586		0.88132488		16.38847038		 0.00007143		-0.00014305		-0.00011884
H		1.91080687		0.88132488		9.66873408		-0.00057660		-0.00005629		-0.00017426
H		0.42069299		1.76264975		10.51732388		 0.00057660		 0.00005629		 0.00017426
H		1.54469292		0.88132488		0.51588495		 0.00022026		-0.00004129		 0.00001153
H		0.78680694		1.76264975		19.67017301		-0.00022026		 0.00004129		-0.00001153
Mg		0.30018487		1.76264975		7.50461220		 0.00029633		-0.00019042		-0.00048758
Mg		2.03131469		0.88132488		12.68144576		-0.00029633		 0.00019042		 0.00048758
Mg		0.10231603		0.00000000		2.55788788		-0.00069210		-0.00035063		 0.00025088
Mg		0.70268485		0.00000000		17.56711106		 0.00069210		 0.00035063		-0.00025088
Mg		1.72783086		0.88132488		5.09432137		-0.00011004		-0.00014945		-0.00007927
Mg		0.60366900		1.76264975		15.09173537		 0.00011004		 0.00014945		 0.00007927
