# total energy = -13384.5789135 eV

CRYSTAL
PRIMVEC
		3.05299894		0.00000000		-0.24423930
		-1.52650100		2.64397429		0.12212118
		-1.61000086		0.00000000		20.12499998
PRIMECORD
   18 1
O		-0.50119301		0.00000000		6.26491253		 0.00029018		 0.00001560		 0.00060005
O		-1.10880692		0.00000000		13.86008592		-0.00029018		-0.00001560		-0.00060005
O		0.83709809		0.88132487		8.49540433		 0.00038411		 0.00008878		-0.00021013
O		-0.92059794		1.76264973		11.50747416		-0.00038411		-0.00008878		 0.00021013
O		1.41090195		0.88132487		1.32285482		 0.00013840		 0.00026168		-0.00058490
O		-1.49440181		1.76264973		18.68002367		-0.00013840		-0.00026168		 0.00058490
O		-0.30380711		1.76264973		3.79758777		 0.00029990		-0.00032500		 0.00070674
O		0.22030694		0.88132487		16.20529103		-0.00029990		 0.00032500		-0.00070674
H		0.75788609		0.88132487		9.48555435		-0.00024492		 0.00030822		-0.00078563
H		-0.84138594		1.76264973		10.51732414		 0.00024492		-0.00030822		 0.00078563
H		1.49011395		0.88132487		0.33270511		-0.00004941		-0.00009578		-0.00050153
H		-1.57361381		1.76264973		19.67017369		 0.00004941		 0.00009578		 0.00050153
Mg		-0.60036896		1.76264973		7.50461236		-0.00079296		-0.00010761		 0.00036093
Mg		0.51686911		0.88132487		12.49826613		 0.00079296		 0.00010761		-0.00036093
Mg		-0.20463085		0.00000000		2.55788794		-0.00082574		-0.00028598		 0.00028701
Mg		-1.40536878		0.00000000		17.56711174		 0.00082574		 0.00028598		-0.00028701
Mg		1.12383892		0.88132487		4.91114165		-0.00041822		 0.00024861		 0.00078142
Mg		-1.20733878		1.76264973		15.09173592		 0.00041822		-0.00024861		-0.00078142
