# total energy = -10829.9274876 eV

CRYSTAL
PRIMVEC
		3.03200062		-0.36383934		0.00000000
		-1.83109413		2.80770861		0.00000000
		0.00000000		0.00000000		14.96000065
PRIMECORD
   13 1
Mg		1.41096894		0.69334290		2.49333303		-0.00002389		 0.00065587		 0.00046809
Mg		-0.21006305		1.75052606		12.46666639		 0.00002389		-0.00065587		-0.00046809
Mg		0.00000000		0.00000000		0.00000000		0.00000000		0.00000000		0.00000000
Mg		-0.21006305		1.75052606		4.98666729		 0.00060435		-0.00023183		-0.00010857
Mg		1.41096802		0.69334290		9.97333336		-0.00060435		 0.00023183		 0.00010857
O		1.41096894		0.69334290		13.71333459		 0.00028767		-0.00019343		-0.00004892
O		-0.21006305		1.75052606		1.24666606		-0.00028767		 0.00019343		 0.00004892
O		1.41096894		0.69334290		6.08872015		 0.00046557		 0.00064151		 0.00039421
O		-0.21006305		1.75052606		8.87128050		-0.00046557		-0.00064151		-0.00039421
O		0.00000000		0.00000000		11.22299240		 0.00004246		 0.00037634		-0.00016775
O		0.00000000		0.00000000		3.73700825		-0.00004246		-0.00037634		 0.00016775
H		1.41096894		0.69334290		7.07907224		 0.00031949		 0.00047402		-0.00074039
H		-0.21006305		1.75052606		7.88092932		-0.00031949		-0.00047402		 0.00074039
