# total energy = -49445.7212301 eV

CRYSTAL
PRIMVEC
		5.08939982		0.00000000		0.00000000
		0.00000000		13.96800031		0.00000000
		0.00000000		0.00000000		8.26081861
PRIMECORD
   70 1
Si		2.54469991		0.00000000		0.00000000		0.00000000		0.00000000		0.00000000
Si		0.00000000		6.98399965		4.13040981		0.00000000		0.00000000		0.00000000
Si		2.47349870		5.25923157		0.00000000		-0.00032939		 0.00007193		0.00000000
Si		2.61590112		8.70876773		0.00000000		 0.00032939		-0.00007193		0.00000000
Si		0.07120121		12.24323172		4.13040981		 0.00032939		 0.00007193		0.00000000
Si		5.01819861		1.72476910		4.13040981		-0.00032939		-0.00007193		0.00000000
Mg		0.86219522		2.42358797		0.00000000		 0.00028601		 0.00051713		-0.00000000
Mg		4.22720460		11.54441183		0.00000000		-0.00028601		-0.00051713		-0.00000000
Mg		1.68250469		9.40758762		4.13040981		-0.00028601		 0.00051713		0.00000000
Mg		3.40689513		4.56041168		4.13040981		 0.00028601		-0.00051713		0.00000000
Mg		0.80570289		4.51808975		2.67485266		 0.00001462		 0.00009588		 0.00020187
Mg		4.28369694		9.44991056		5.58596595		-0.00001462		-0.00009588		-0.00020187
Mg		4.28369694		9.44991056		2.67485266		-0.00001462		-0.00009588		 0.00020187
Mg		0.80570289		4.51808975		5.58596595		 0.00001462		 0.00009588		-0.00020187
Mg		1.73899703		11.50208838		1.45555613		-0.00001462		 0.00009588		-0.00020187
Mg		3.35040280		2.46591091		6.80526298		 0.00001462		-0.00009588		 0.00020187
Mg		3.35040280		2.46591091		1.45555613		 0.00001462		-0.00009588		-0.00020187
Mg		1.73899703		11.50208838		6.80526298		-0.00001462		 0.00009588		 0.00020187
Mg		2.54469991		6.98399965		2.65395304		0.00000000		0.00000000		-0.00042511
Mg		2.54469991		6.98399965		5.60686557		0.00000000		0.00000000		 0.00042511
Mg		0.00000000		0.00000000		1.47645575		0.00000000		0.00000000		 0.00042511
Mg		0.00000000		0.00000000		6.78436285		0.00000000		0.00000000		-0.00042511
Mg		2.54469991		0.00000000		2.82429169		0.00000000		0.00000000		 0.00022521
Mg		2.54469991		0.00000000		5.43652793		0.00000000		0.00000000		-0.00022521
Mg		0.00000000		6.98399965		1.30611812		0.00000000		0.00000000		-0.00022521
Mg		0.00000000		6.98399965		6.95470099		0.00000000		0.00000000		 0.00022521
O		1.69075002		5.77129797		1.28967885		-0.00045653		 0.00017406		-0.00027537
O		3.39864980		8.19670184		6.97113975		 0.00045653		-0.00017406		 0.00027537
O		3.39864980		8.19670184		1.28967885		 0.00045653		-0.00017406		-0.00027537
O		1.69075002		5.77129797		6.97113975		-0.00045653		 0.00017406		 0.00027537
O		0.85394989		12.75529863		2.84073096		 0.00045653		 0.00017406		 0.00027537
O		4.23544892		1.21270219		5.42008866		-0.00045653		-0.00017406		-0.00027537
O		4.23544892		1.21270219		2.84073096		-0.00045653		-0.00017406		 0.00027537
O		0.85394989		12.75529863		5.42008866		 0.00045653		 0.00017406		-0.00027537
O		2.50953216		3.62092475		0.00000000		-0.00017916		-0.00012041		0.00000000
O		2.57986715		10.34707454		0.00000000		 0.00017916		 0.00012041		0.00000000
O		0.03516775		10.60492440		4.13040981		 0.00017916		-0.00012041		-0.00000000
O		5.05423207		3.36307591		4.13040981		-0.00017916		 0.00012041		-0.00000000
O		4.02780191		5.78973585		0.00000000		-0.00049650		 0.00024346		-0.00000000
O		1.06159791		8.17826396		0.00000000		 0.00049650		-0.00024346		-0.00000000
O		3.60629782		12.77373549		4.13040981		 0.00049650		 0.00024346		0.00000000
O		1.48310200		1.19426380		4.13040981		-0.00049650		-0.00024346		0.00000000
O		1.81386210		1.02064198		1.19484501		 0.00015999		 0.00000534		-0.00016242
O		3.27553773		12.94735833		7.06597461		-0.00015999		-0.00000534		 0.00016242
O		3.27553773		12.94735833		1.19484501		-0.00015999		-0.00000534		-0.00016242
O		1.81386210		1.02064198		7.06597461		 0.00015999		 0.00000534		 0.00016242
O		0.73083781		8.00464163		2.93556480		-0.00015999		 0.00000534		 0.00016242
O		4.35856201		5.96335868		5.32525381		 0.00015999		-0.00000534		-0.00016242
O		4.35856201		5.96335868		2.93556480		 0.00015999		-0.00000534		 0.00016242
O		0.73083781		8.00464163		5.32525381		-0.00015999		 0.00000534		-0.00016242
O		5.00058979		3.51784100		1.31512178		 0.00018184		 0.00004561		 0.00010201
O		0.08881003		10.45015881		6.94569683		-0.00018184		-0.00004561		-0.00010201
O		0.08881003		10.45015881		1.31512178		-0.00018184		-0.00004561		 0.00010201
O		5.00058979		3.51784100		6.94569683		 0.00018184		 0.00004561		-0.00010201
O		2.63350994		10.50184065		2.81528701		-0.00018184		 0.00004561		-0.00010201
O		2.45588988		3.46615865		5.44553159		 0.00018184		-0.00004561		 0.00010201
O		2.45588988		3.46615865		2.81528701		 0.00018184		-0.00004561		-0.00010201
O		2.63350994		10.50184065		5.44553159		-0.00018184		 0.00004561		 0.00010201
O		0.99589376		12.86159431		0.00000000		 0.00050098		 0.00068454		0.00000000
O		4.09350606		1.10640498		0.00000000		-0.00050098		-0.00068454		0.00000000
O		1.54880615		5.87759466		4.13040981		-0.00050098		 0.00068454		0.00000000
O		3.54059367		8.09040463		4.13040981		 0.00050098		-0.00068454		0.00000000
H		4.69802498		4.22671703		0.89629878		 0.00001786		 0.00053931		 0.00019712
H		0.39137485		9.74128277		7.36452084		-0.00001786		-0.00053931		-0.00019712
H		0.39137485		9.74128277		0.89629878		-0.00001786		-0.00053931		 0.00019712
H		4.69802498		4.22671703		7.36452084		 0.00001786		 0.00053931		-0.00019712
H		2.93607476		11.21071668		3.23411103		-0.00001786		 0.00053931		-0.00019712
H		2.15332506		2.75728312		5.02670859		 0.00001786		-0.00053931		 0.00019712
H		2.15332506		2.75728312		3.23411103		 0.00001786		-0.00053931		-0.00019712
H		2.93607476		11.21071668		5.02670859		-0.00001786		 0.00053931		 0.00019712
