# total energy = -49443.1997793 eV

CRYSTAL
PRIMVEC
		5.08939982		0.00000000		0.00000000
		0.00000000		13.96800031		0.00000000
		0.00000000		0.00000000		8.04342998
PRIMECORD
   70 1
Si		2.54469991		0.00000000		0.00000000		0.00000000		0.00000000		0.00000000
Si		0.00000000		6.98399965		4.02171499		0.00000000		0.00000000		0.00000000
Si		2.47349870		5.25923157		0.00000000		-0.00033702		 0.00005839		0.00000000
Si		2.61590112		8.70876773		0.00000000		 0.00033702		-0.00005839		0.00000000
Si		0.07120121		12.24323172		4.02171499		 0.00033702		 0.00005839		-0.00000000
Si		5.01819861		1.72476910		4.02171499		-0.00033702		-0.00005839		-0.00000000
Mg		0.86219522		2.42358797		0.00000000		 0.00020397		 0.00057976		0.00000000
Mg		4.22720460		11.54441183		0.00000000		-0.00020397		-0.00057976		0.00000000
Mg		1.68250469		9.40758762		4.02171499		-0.00020397		 0.00057976		-0.00000000
Mg		3.40689513		4.56041168		4.02171499		 0.00020397		-0.00057976		-0.00000000
Mg		0.80570289		4.51808975		2.60446168		-0.00011827		 0.00017701		 0.00015831
Mg		4.28369694		9.44991056		5.43896678		 0.00011827		-0.00017701		-0.00015831
Mg		4.28369694		9.44991056		2.60446168		 0.00011827		-0.00017701		 0.00015831
Mg		0.80570289		4.51808975		5.43896678		-0.00011827		 0.00017701		-0.00015831
Mg		1.73899703		11.50208838		1.41725178		 0.00011827		 0.00017701		-0.00015831
Mg		3.35040280		2.46591091		6.62617667		-0.00011827		-0.00017701		 0.00015831
Mg		3.35040280		2.46591091		1.41725178		-0.00011827		-0.00017701		-0.00015831
Mg		1.73899703		11.50208838		6.62617667		 0.00011827		 0.00017701		 0.00015831
Mg		2.54469991		6.98399965		2.58411273		0.00000000		0.00000000		-0.00038800
Mg		2.54469991		6.98399965		5.45931674		0.00000000		0.00000000		 0.00038800
Mg		0.00000000		0.00000000		1.43760175		0.00000000		0.00000000		 0.00038800
Mg		0.00000000		0.00000000		6.60582670		0.00000000		0.00000000		-0.00038800
Mg		2.54469991		0.00000000		2.74996813		0.00000000		0.00000000		-0.00026023
Mg		2.54469991		0.00000000		5.29346185		0.00000000		0.00000000		 0.00026023
Mg		0.00000000		6.98399965		1.27174686		0.00000000		0.00000000		 0.00026023
Mg		0.00000000		6.98399965		6.77168261		0.00000000		0.00000000		-0.00026023
O		1.69075002		5.77129797		1.25574019		-0.00061393		 0.00015514		-0.00022071
O		3.39864980		8.19670184		6.78768877		 0.00061393		-0.00015514		 0.00022071
O		3.39864980		8.19670184		1.25574019		 0.00061393		-0.00015514		-0.00022071
O		1.69075002		5.77129797		6.78768877		-0.00061393		 0.00015514		 0.00022071
O		0.85394989		12.75529863		2.76597480		 0.00061393		 0.00015514		 0.00022071
O		4.23544892		1.21270219		5.27745467		-0.00061393		-0.00015514		-0.00022071
O		4.23544892		1.21270219		2.76597480		-0.00061393		-0.00015514		 0.00022071
O		0.85394989		12.75529863		5.27745467		 0.00061393		 0.00015514		-0.00022071
O		2.50953216		3.62092475		0.00000000		-0.00024660		-0.00024344		0.00000000
O		2.57986715		10.34707454		0.00000000		 0.00024660		 0.00024344		0.00000000
O		0.03516775		10.60492440		4.02171499		 0.00024660		-0.00024344		0.00000000
O		5.05423207		3.36307591		4.02171499		-0.00024660		 0.00024344		0.00000000
O		4.02780191		5.78973585		0.00000000		-0.00049929		 0.00032960		0.00000000
O		1.06159791		8.17826396		0.00000000		 0.00049929		-0.00032960		0.00000000
O		3.60629782		12.77373549		4.02171499		 0.00049929		 0.00032960		0.00000000
O		1.48310200		1.19426380		4.02171499		-0.00049929		-0.00032960		0.00000000
O		1.81386210		1.02064198		1.16340219		 0.00022116		 0.00011799		-0.00013703
O		3.27553773		12.94735833		6.88002779		-0.00022116		-0.00011799		 0.00013703
O		3.27553773		12.94735833		1.16340219		-0.00022116		-0.00011799		-0.00013703
O		1.81386210		1.02064198		6.88002779		 0.00022116		 0.00011799		 0.00013703
O		0.73083781		8.00464163		2.85831280		-0.00022116		 0.00011799		 0.00013703
O		4.35856201		5.96335868		5.18511566		 0.00022116		-0.00011799		-0.00013703
O		4.35856201		5.96335868		2.85831280		 0.00022116		-0.00011799		 0.00013703
O		0.73083781		8.00464163		5.18511566		-0.00022116		 0.00011799		-0.00013703
O		5.00058979		3.51784100		1.28051386		 0.00017657		 0.00002706		-0.00006976
O		0.08881003		10.45015881		6.76291459		-0.00017657		-0.00002706		 0.00006976
O		0.08881003		10.45015881		1.28051386		-0.00017657		-0.00002706		-0.00006976
O		5.00058979		3.51784100		6.76291459		 0.00017657		 0.00002706		 0.00006976
O		2.63350994		10.50184065		2.74120113		-0.00017657		 0.00002706		 0.00006976
O		2.45588988		3.46615865		5.30222885		 0.00017657		-0.00002706		-0.00006976
O		2.45588988		3.46615865		2.74120113		 0.00017657		-0.00002706		 0.00006976
O		2.63350994		10.50184065		5.30222885		-0.00017657		 0.00002706		-0.00006976
O		0.99589376		12.86159431		0.00000000		 0.00049642		 0.00039772		0.00000000
O		4.09350606		1.10640498		0.00000000		-0.00049642		-0.00039772		0.00000000
O		1.54880615		5.87759466		4.02171499		-0.00049642		 0.00039772		0.00000000
O		3.54059367		8.09040463		4.02171499		 0.00049642		-0.00039772		0.00000000
H		4.69802498		4.22671703		0.87271196		-0.00005620		 0.00053429		 0.00013491
H		0.39137485		9.74128277		7.17071650		 0.00005620		-0.00053429		-0.00013491
H		0.39137485		9.74128277		0.87271196		 0.00005620		-0.00053429		 0.00013491
H		4.69802498		4.22671703		7.17071650		-0.00005620		 0.00053429		-0.00013491
H		2.93607476		11.21071668		3.14900303		 0.00005620		 0.00053429		-0.00013491
H		2.15332506		2.75728312		4.89442695		-0.00005620		-0.00053429		 0.00013491
H		2.15332506		2.75728312		3.14900303		-0.00005620		-0.00053429		-0.00013491
H		2.93607476		11.21071668		4.89442695		 0.00005620		 0.00053429		 0.00013491
