# total energy = -49430.0229618 eV

CRYSTAL
PRIMVEC
		20.05629955		0.00000000		0.00000000
		0.00000000		8.81909587		0.00000000
		0.00000000		0.00000000		5.18020122
PRIMECORD
   80 1
Mg		7.54718552		5.76857483		4.48760705		-0.00012660		 0.00029035		 0.00047381
Mg		12.50911403		3.05052706		0.69259216		 0.00012660		-0.00029035		-0.00047381
Mg		2.48096425		3.05052706		1.89750644		 0.00012660		-0.00029035		 0.00047381
Mg		17.57533529		5.76857483		3.28269277		-0.00012660		 0.00029035		-0.00047381
Mg		12.50911403		1.35902288		3.28269277		 0.00012660		 0.00029035		-0.00047381
Mg		7.54718552		7.46007700		1.89750644		-0.00012660		-0.00029035		 0.00047381
Mg		17.57533529		7.46007700		0.69259216		-0.00012660		-0.00029035		-0.00047381
Mg		2.48096425		1.35902288		4.48760705		 0.00012660		 0.00029035		 0.00047381
Mg		7.55921930		4.29666506		1.85917484		 0.00041367		 0.00010650		 0.00077601
Mg		12.49708025		4.52243482		3.32102637		-0.00041367		-0.00010650		-0.00077601
Mg		2.46893047		4.52243482		4.44927345		-0.00041367		-0.00010650		 0.00077601
Mg		17.58736707		4.29666506		0.73092576		 0.00041367		 0.00010650		-0.00077601
Mg		12.49708025		8.70621500		0.73092576		-0.00041367		 0.00010650		-0.00077601
Mg		7.55921930		0.11288488		4.44927345		 0.00041367		-0.00010650		 0.00077601
Mg		17.58736707		0.11288488		3.32102637		 0.00041367		-0.00010650		-0.00077601
Mg		2.46893047		8.70621500		1.85917484		-0.00041367		 0.00010650		 0.00077601
Si		5.44528533		3.01436956		0.26211778		-0.00010950		 0.00082911		 0.00025128
Si		14.61101422		5.80473232		4.91808143		 0.00010950		-0.00082911		-0.00025128
Si		4.58286445		5.80473232		2.85221839		 0.00010950		-0.00082911		 0.00025128
Si		15.47343510		3.01436956		2.32798282		-0.00010950		 0.00082911		-0.00025128
Si		14.61101422		7.42391750		2.32798282		 0.00010950		 0.00082911		-0.00025128
Si		5.44528533		1.39518238		2.85221839		-0.00010950		-0.00082911		 0.00025128
Si		15.47343510		1.39518238		4.91808143		-0.00010950		-0.00082911		-0.00025128
Si		4.58286445		7.42391750		0.26211778		 0.00010950		 0.00082911		 0.00025128
Si		9.49866347		2.97556463		4.13431734		-0.00031194		-0.00009760		 0.00014747
Si		10.55763608		5.84353524		1.04588187		 0.00031194		 0.00009760		-0.00014747
Si		0.52948631		5.84353524		1.54421874		 0.00031194		 0.00009760		 0.00014747
Si		19.52681324		2.97556463		3.63598248		-0.00031194		-0.00009760		-0.00014747
Si		10.55763608		7.38511457		3.63598248		 0.00031194		-0.00009760		-0.00014747
Si		9.49866347		1.43398531		1.54421874		-0.00031194		 0.00009760		 0.00014747
Si		19.52681324		1.43398531		1.04588187		-0.00031194		 0.00009760		-0.00014747
Si		0.52948631		7.38511457		4.13431734		 0.00031194		-0.00009760		 0.00014747
O		3.68033097		3.00466833		0.17612640		-0.00039889		-0.00003635		-0.00026567
O		16.37596858		5.81443355		5.00407281		 0.00039889		 0.00003635		 0.00026567
O		6.34781881		5.81443355		2.76622701		 0.00039889		 0.00003635		-0.00026567
O		13.70848074		3.00466833		2.41397220		-0.00039889		-0.00003635		 0.00026567
O		16.37596858		7.41421827		2.41397220		 0.00039889		-0.00003635		 0.00026567
O		3.68033097		1.40488361		2.76622701		-0.00039889		 0.00003635		-0.00026567
O		13.70848074		1.40488361		5.00407281		-0.00039889		 0.00003635		 0.00026567
O		6.34781881		7.41421827		0.17612640		 0.00039889		-0.00003635		-0.00026567
O		6.24553168		4.43512573		0.22274927		-0.00000900		 0.00089130		 0.00009384
O		13.81076787		4.38397415		4.95745194		 0.00000900		-0.00089130		-0.00009384
O		3.78261809		4.38397415		2.81284988		 0.00000900		-0.00089130		 0.00009384
O		16.27368145		4.43512573		2.36735133		-0.00000900		 0.00089130		-0.00009384
O		13.81076787		0.02557579		2.36735133		 0.00000900		 0.00089130		-0.00009384
O		6.24553168		8.79352409		2.81284988		-0.00000900		-0.00089130		 0.00009384
O		16.27368145		8.79352409		4.95745194		-0.00000900		-0.00089130		-0.00009384
O		3.78261809		0.02557579		0.22274927		 0.00000900		 0.00089130		 0.00009384
O		6.06703061		1.96136771		4.30992629		-0.00091359		 0.00037590		 0.00006572
O		13.98926893		6.85773217		0.87027493		 0.00091359		-0.00037590		-0.00006572
O		3.96111916		6.85773217		1.71982769		 0.00091359		-0.00037590		 0.00006572
O		16.09518039		1.96136771		3.46037353		-0.00091359		 0.00037590		-0.00006572
O		13.98926893		6.37091765		3.46037353		 0.00091359		 0.00037590		-0.00006572
O		6.06703061		2.44818223		1.71982769		-0.00091359		-0.00037590		 0.00006572
O		16.09518039		2.44818223		0.87027493		-0.00091359		-0.00037590		-0.00006572
O		3.96111916		6.37091765		4.30992629		 0.00091359		 0.00037590		 0.00006572
O		11.27565161		3.01084166		4.13379989		-0.00012430		-0.00026913		 0.00080548
O		8.78064794		5.80825822		1.04640133		 0.00012430		 0.00026913		-0.00080548
O		18.80879772		5.80825822		1.54369928		 0.00012430		 0.00026913		 0.00080548
O		1.24750183		3.01084166		3.63649993		-0.00012430		-0.00026913		-0.00080548
O		8.78064794		7.42039160		3.63649993		 0.00012430		-0.00026913		-0.00080548
O		11.27565161		1.39870828		1.54369928		-0.00012430		 0.00026913		 0.00080548
O		1.24750183		1.39870828		1.04640133		-0.00012430		 0.00026913		-0.00080548
O		18.80879772		7.42039160		4.13379989		 0.00012430		-0.00026913		 0.00080548
O		8.67234392		4.26491594		3.57433744		-0.00017659		 0.00000224		 0.00032579
O		11.38395562		4.55418193		1.60586178		 0.00017659		-0.00000224		-0.00032579
O		1.35580585		4.55418193		0.98423883		 0.00017659		-0.00000224		 0.00032579
O		18.70049370		4.26491594		4.19596238		-0.00017659		 0.00000224		-0.00032579
O		11.38395562		8.67446588		4.19596238		 0.00017659		 0.00000224		-0.00032579
O		8.67234392		0.14463400		0.98423883		-0.00017659		-0.00000224		 0.00032579
O		18.70049370		0.14463400		1.60586178		-0.00017659		-0.00000224		-0.00032579
O		1.35580585		8.67446588		3.57433744		 0.00017659		 0.00000224		 0.00032579
O		8.99123909		1.72060587		3.12366035		-0.00019482		 0.00031301		-0.00009038
O		11.06506046		7.09849401		2.05654087		 0.00019482		-0.00031301		 0.00009038
O		1.03691069		7.09849401		0.53356175		 0.00019482		-0.00031301		-0.00009038
O		19.01938886		1.72060587		4.64663947		-0.00019482		 0.00031301		 0.00009038
O		11.06506046		6.13015782		4.64663947		 0.00019482		 0.00031301		 0.00009038
O		8.99123909		2.68894407		0.53356175		-0.00019482		-0.00031301		-0.00009038
O		19.01938886		2.68894407		2.05654087		-0.00019482		-0.00031301		 0.00009038
O		1.03691069		6.13015782		3.12366035		 0.00019482		 0.00031301		-0.00009038
