# total energy = -7658.60094404 eV	

CRYSTAL	
PRIMVEC	
		5.54070013		0.00000000		0.00000000	
		-2.77035006		4.79838483		0.00000000	
		0.00000000		0.00000000		4.60132429	
PRIMCOORD
   15 1	
Mg		0.00000000		0.00000000		0.00000000		0.00000000		-0.00000000		-0.00000000	
Mg		0.00000000		3.19892488		0.05015386		0.00000000		0.00000000		 0.00051913	
Mg		2.77035006		1.59946216		4.55117098		-0.00000000		-0.00000000		-0.00051913	
O		0.91310683		1.60554031		1.01229201		-0.00066469		 0.00042093		 0.00007317	
O		1.85724213		3.19284729		3.58903283		 0.00066469		-0.00042093		-0.00007317	
O		0.92335823		4.78639088		1.01229201		-0.00003219		-0.00078611		 0.00007317	
O		1.84699183		0.01199617		3.58903283		 0.00003219		 0.00078611		-0.00007317	
O		-1.83646506		3.20484235		1.01229201		 0.00069688		 0.00036518		 0.00007317	
O		4.60681512		1.59354414		3.58903283		-0.00069688		-0.00036518		-0.00007317	
H		0.78594776		1.67607730		1.94175886		 0.00025285		 0.00000171		 0.00028355	
H		1.98440231		3.12231030		2.65956598		-0.00025285		-0.00000171		-0.00028355	
H		0.92585099		4.64100013		1.94175886		-0.00012791		 0.00021811		 0.00028355	
H		1.84449907		0.15738691		2.65956598		 0.00012791		-0.00021811		-0.00028355	
H		-1.71179931		3.27969721		1.94175886		-0.00012494		-0.00021983		 0.00028355	
H		4.48214937		1.51868928		2.65956598		 0.00012494		 0.00021983		-0.00028355	
