# total energy = -20636.0949324 eV	

CRYSTAL	
PRIMVEC	
		10.05000003		0.00000000		0.00000000	
		0.00000000		5.60625182		0.00000000	
		0.00000000		0.00000000		4.86999886	
PRIMCOORD
   28 1	
Si		3.34665001		0.00000000		4.37666949		 0.00023631		-0.00000000		-0.00007120	
Si		6.70335002		0.00000000		0.49333139		-0.00023631		-0.00000000		 0.00007120	
Si		8.37165002		2.80312490		4.37666949		 0.00027042		0.00000000		-0.00008836	
Si		1.67835000		2.80312490		0.49333139		-0.00027042		0.00000000		 0.00008836	
Mg		0.00000000		0.00000000		0.00000000		0.00000000		0.00000000		0.00000000	
Mg		5.02500001		2.80312490		0.00000000		0.00000000		0.00000000		0.00000000	
Mg		5.02500001		0.00000000		2.43500044		0.00000000		0.00000000		0.00000000	
Mg		0.00000000		2.80312490		2.43500044		0.00000000		0.00000000		0.00000000	
Mg		2.51250001		1.40156295		2.43500044		-0.00000995		 0.00000153		 0.00000086	
Mg		7.53750002		4.20468685		2.43500044		 0.00000995		-0.00000153		-0.00000086	
Mg		7.53750002		1.40156295		2.43500044		 0.00000995		 0.00000153		-0.00000086	
Mg		2.51250001		4.20468685		2.43500044		-0.00000995		-0.00000153		 0.00000086	
O		8.23497002		0.00000000		1.08113981		-0.00001654		-0.00000000		-0.00005194	
O		1.81503001		0.00000000		3.78886006		 0.00001654		-0.00000000		 0.00005194	
O		3.20997001		2.80312490		1.08113981		-0.00005158		-0.00000000		-0.00004375	
O		6.84003002		2.80312490		3.78886006		 0.00005158		-0.00000000		 0.00004375	
O		3.35770501		0.00000000		1.14591105		-0.00021378		0.00000000		 0.00002388	
O		6.69229502		0.00000000		3.72408882		 0.00021378		0.00000000		-0.00002388	
O		8.38270502		2.80312490		1.14591105		-0.00019286		0.00000000		 0.00001427	
O		1.66729500		2.80312490		3.72408882		 0.00019286		0.00000000		-0.00001427	
O		0.91254000		1.51536915		1.09721076		-0.00079291		 0.00017927		 0.00028778	
O		9.13746003		4.09087965		3.77278911		 0.00079291		-0.00017927		-0.00028778	
O		9.13746003		1.51536915		3.77278911		 0.00079291		 0.00017927		-0.00028778	
O		0.91254000		4.09087965		1.09721076		-0.00079291		-0.00017927		 0.00028778	
O		5.93754002		4.31849506		1.09721076		-0.00077008		 0.00018286		 0.00027188	
O		4.11246001		1.28775575		3.77278911		 0.00077008		-0.00018286		-0.00027188	
O		4.11246001		4.31849506		3.77278911		 0.00077008		 0.00018286		-0.00027188	
O		5.93754002		1.28775575		1.09721076		-0.00077008		-0.00018286		 0.00027188	
