# total energy = -20637.0196607 eV	

CRYSTAL	
PRIMVEC	
		10.05000003		0.00000000		0.00000000	
		0.00000000		6.03749732		0.00000000	
		0.00000000		0.00000000		4.86999886	
PRIMCOORD
   28 1	
Si		3.34665001		0.00000000		4.37666949		-0.00051498		-0.00000000		 0.00056363	
Si		6.70335002		0.00000000		0.49333139		 0.00051498		-0.00000000		-0.00056363	
Si		8.37165002		3.01874966		4.37666949		-0.00049773		0.00000000		 0.00055724	
Si		1.67835000		3.01874966		0.49333139		 0.00049773		0.00000000		-0.00055724	
Mg		0.00000000		0.00000000		0.00000000		0.00000000		0.00000000		0.00000000	
Mg		5.02500001		3.01874966		0.00000000		0.00000000		0.00000000		0.00000000	
Mg		5.02500001		0.00000000		2.43500044		0.00000000		0.00000000		0.00000000	
Mg		0.00000000		3.01874966		2.43500044		0.00000000		0.00000000		0.00000000	
Mg		2.51250001		1.50937533		2.43500044		-0.00000708		-0.00000601		-0.00000474	
Mg		7.53750002		4.52812500		2.43500044		 0.00000708		 0.00000601		 0.00000474	
Mg		7.53750002		1.50937533		2.43500044		 0.00000708		-0.00000601		 0.00000474	
Mg		2.51250001		4.52812500		2.43500044		-0.00000708		 0.00000601		-0.00000474	
O		8.23497002		0.00000000		1.08113981		 0.00040096		0.00000000		-0.00002329	
O		1.81503001		0.00000000		3.78886006		-0.00040096		0.00000000		 0.00002329	
O		3.20997001		3.01874966		1.08113981		 0.00037939		0.00000000		-0.00001362	
O		6.84003002		3.01874966		3.78886006		-0.00037939		0.00000000		 0.00001362	
O		3.35770501		0.00000000		1.14591105		 0.00048164		-0.00000000		 0.00007245	
O		6.69229502		0.00000000		3.72408882		-0.00048164		0.00000000		-0.00007245	
O		8.38270502		3.01874966		1.14591105		 0.00050315		0.00000000		 0.00006269	
O		1.66729500		3.01874966		3.72408882		-0.00050315		0.00000000		-0.00006269	
O		0.91254000		1.63193609		1.09721076		 0.00043301		-0.00048011		 0.00024867	
O		9.13746003		4.40556424		3.77278911		-0.00043301		 0.00048011		-0.00024867	
O		9.13746003		1.63193609		3.77278911		-0.00043301		-0.00048011		-0.00024867	
O		0.91254000		4.40556424		1.09721076		 0.00043301		 0.00048011		 0.00024867	
O		5.93754002		4.65068575		1.09721076		 0.00044436		-0.00047559		 0.00023697	
O		4.11246001		1.38681357		3.77278911		-0.00044436		 0.00047559		-0.00023697	
O		4.11246001		4.65068575		3.77278911		-0.00044436		-0.00047559		-0.00023697	
O		5.93754002		1.38681357		1.09721076		 0.00044436		 0.00047559		 0.00023697	
