# total energy = -24712.6923721 eV	

CRYSTAL	
PRIMVEC	
		9.03899958		0.00000000		0.00000000	
		0.00000000		8.04287471		0.00000000	
		0.00000000		0.00000000		5.08900196	
PRIMCOORD
   40 1	
O		1.09371895		0.69490383		0.29974227		 0.00027762		-0.00053658		-0.00080455	
O		1.09371895		7.34796998		2.84424144		 0.00027762		 0.00053658		-0.00080455	
O		5.61321874		4.71634208		2.24475781		 0.00027762		-0.00053658		 0.00080455	
O		5.61321874		3.32653263		4.78925789		 0.00027762		 0.00053658		 0.00080455	
O		3.40679894		1.97854662		0.53739835		 0.00041477		 0.00042294		-0.00036870	
O		3.40679894		6.06432809		3.08189843		 0.00041477		-0.00042294		-0.00036870	
O		7.92629783		5.99998397		2.00710172		 0.00041477		 0.00042294		 0.00036870	
O		7.92629783		2.04288983		4.55160180		 0.00041477		-0.00042294		 0.00036870	
O		3.23415405		7.72839797		1.40456382		-0.00001787		-0.00045215		-0.00054525	
O		3.23415405		0.31447583		3.94906389		-0.00001787		 0.00045215		-0.00054525	
O		7.75365384		3.70696062		1.13993626		-0.00001787		-0.00045215		 0.00054525	
O		7.75365384		4.33591409		3.68443543		-0.00001787		 0.00045215		 0.00054525	
O		7.93985633		7.30855994		4.45338403		-0.00025885		 0.00076399		-0.00005141	
O		7.93985633		0.73431477		1.90888395		-0.00025885		-0.00076399		-0.00005141	
O		3.42035744		3.28712259		3.18011620		-0.00025885		 0.00076399		 0.00005141	
O		3.42035744		4.75575212		0.63561612		-0.00025885		-0.00076399		 0.00005141	
O		5.61683344		6.11499711		4.87882443		 0.00006528		 0.00002667		 0.00008714	
O		5.61683344		1.92787670		2.33432345		 0.00006528		-0.00002667		 0.00008714	
O		1.09733455		2.09355975		2.75467580		 0.00006528		 0.00002667		-0.00008714	
O		1.09733455		5.94931496		0.21017572		 0.00006528		-0.00002667		-0.00008714	
O		5.84280843		7.65440382		2.86103590		-0.00010325		-0.00014485		-0.00020997	
O		5.84280843		0.38847089		0.31653582		-0.00010325		 0.00014485		-0.00020997	
O		1.32330863		3.63296556		4.77246342		-0.00010325		-0.00014485		 0.00020997	
O		1.32330863		4.40990734		2.22796425		-0.00010325		 0.00014485		 0.00020997	
Si		2.68187118		0.71340304		0.34808826		-0.00001739		-0.00017151		-0.00010194	
Si		2.68187118		7.32947167		2.89258743		-0.00001739		 0.00017151		-0.00010194	
Si		7.20137097		4.73483949		2.19641272		-0.00001739		-0.00017151		 0.00010194	
Si		7.20137097		3.30803341		4.74091189		-0.00001739		 0.00017151		 0.00010194	
Si		6.34447381		7.32223233		4.38671779		 0.00003542		-0.00003291		-0.00020576	
Si		6.34447381		0.72064238		1.84221771		 0.00003542		 0.00003291		-0.00020576	
Si		1.82497402		3.30079588		3.24678153		 0.00003542		-0.00003291		 0.00020576	
Si		1.82497402		4.74207883		0.70228236		 0.00003542		 0.00003291		 0.00020576	
Mg		9.01640118		0.77292033		3.64372378		 0.00050981		 0.00021161		-0.00046090	
Mg		9.01640118		7.26995438		1.09922370		 0.00050981		-0.00021161		-0.00046090	
Mg		4.49690139		4.79435679		3.98977555		 0.00050981		 0.00021161		 0.00046090	
Mg		4.49690139		3.24851702		1.44527638		 0.00050981		-0.00021161		 0.00046090	
Mg		0.05423400		2.11286254		1.09464364		-0.00090555		 0.00043072		 0.00035413	
Mg		0.05423400		5.93001217		3.63914371		-0.00090555		-0.00043072		 0.00035413	
Mg		4.57373379		6.13429989		1.44985553		-0.00090555		 0.00043072		-0.00035413	
Mg		4.57373379		1.90857391		3.99435561		-0.00090555		-0.00043072		-0.00035413	
