# total energy = -24715.339705 eV	

CRYSTAL	
PRIMVEC	
		9.03899958		0.00000000		0.00000000	
		0.00000000		8.47762347		0.00000000	
		0.00000000		0.00000000		5.08900196	
PRIMCOORD
   40 1	
O		1.09371895		0.73246720		0.29974227		 0.00022752		-0.00053810		-0.00042976	
O		1.09371895		7.74515808		2.84424144		 0.00022752		 0.00053810		-0.00042976	
O		5.61321874		4.97127893		2.24475781		 0.00022752		-0.00053810		 0.00042976	
O		5.61321874		3.50634544		4.78925789		 0.00022752		 0.00053810		 0.00042976	
O		3.40679894		2.08549606		0.53739835		 0.00036384		-0.00004379		-0.00050915	
O		3.40679894		6.39212832		3.08189843		 0.00036384		 0.00004379		-0.00050915	
O		7.92629783		6.32430780		2.00710172		 0.00036384		-0.00004379		 0.00050915	
O		7.92629783		2.15331658		4.55160180		 0.00036384		 0.00004379		 0.00050915	
O		3.23415405		8.14614980		1.40456382		-0.00047760		-0.00045986		-0.00058728	
O		3.23415405		0.33147458		3.94906389		-0.00047760		 0.00045986		-0.00058728	
O		7.75365384		3.90733716		1.13993626		-0.00047760		-0.00045986		 0.00058728	
O		7.75365384		4.57028722		3.68443543		-0.00047760		 0.00045986		 0.00058728	
O		7.93985633		7.70361665		4.45338403		 0.00001586		 0.00041926		 0.00022150	
O		7.93985633		0.77400682		1.90888395		 0.00001586		-0.00041926		 0.00022150	
O		3.42035744		3.46480491		3.18011620		 0.00001586		 0.00041926		-0.00022150	
O		3.42035744		5.01281946		0.63561612		 0.00001586		-0.00041926		-0.00022150	
O		5.61683344		6.44553796		4.87882443		 0.00008840		-0.00030470		-0.00039860	
O		5.61683344		2.03208732		2.33432345		 0.00008840		 0.00030470		-0.00039860	
O		1.09733455		2.20672622		2.75467580		 0.00008840		-0.00030470		 0.00039860	
O		1.09733455		6.27089906		0.21017572		 0.00008840		 0.00030470		 0.00039860	
O		5.84280843		8.06815498		2.86103590		-0.00040222		 0.00002312		-0.00025850	
O		5.84280843		0.40947030		0.31653582		-0.00040222		-0.00002312		-0.00025850	
O		1.32330863		3.82934325		4.77246342		-0.00040222		 0.00002312		 0.00025850	
O		1.32330863		4.64828203		2.22796425		-0.00040222		-0.00002312		 0.00025850	
Si		2.68187118		0.75196522		0.34808826		 0.00001075		 0.00028033		-0.00014334	
Si		2.68187118		7.72565825		2.89258743		 0.00001075		-0.00028033		-0.00014334	
Si		7.20137097		4.99077786		2.19641272		 0.00001075		 0.00028033		 0.00014334	
Si		7.20137097		3.48684651		4.74091189		 0.00001075		-0.00028033		 0.00014334	
Si		6.34447381		7.71802843		4.38671779		-0.00008366		-0.00024940		-0.00002306	
Si		6.34447381		0.75959504		1.84221771		-0.00008366		 0.00024940		-0.00002306	
Si		1.82497402		3.47921669		3.24678153		-0.00008366		-0.00024940		 0.00002306	
Si		1.82497402		4.99840768		0.70228236		-0.00008366		 0.00024940		 0.00002306	
Mg		9.01640118		0.81470040		3.64372378		 0.00043793		 0.00052923		-0.00008861	
Mg		9.01640118		7.66292488		1.09922370		 0.00043793		-0.00052923		-0.00008861	
Mg		4.49690139		5.05351213		3.98977555		 0.00043793		 0.00052923		 0.00008861	
Mg		4.49690139		3.42411315		1.44527638		 0.00043793		-0.00052923		 0.00008861	
Mg		0.05423400		2.22707210		1.09464364		-0.00018083		-0.00012086		-0.00001279	
Mg		0.05423400		6.25055227		3.63914371		-0.00018083		 0.00012086		-0.00001279	
Mg		4.57373379		6.46588384		1.44985553		-0.00018083		-0.00012086		 0.00001279	
Mg		4.57373379		2.01173963		3.99435561		-0.00018083		 0.00012086		 0.00001279	
