# total energy = -2069.14612666 eV	

CRYSTAL	
PRIMVEC	
		2.93802092		0.00000000		0.00000000	
		-1.46901046		2.54439957		0.00000000	
		0.00000000		0.00000000		2.61268799	
PRIMCOORD
   2 1	
Mg		0.00000000		0.00000000		0.00000000		-0.00000000		0.00000000		0.00000000	
O		0.00000000		1.69626697		1.30634399		0.00000000		-0.00000000		0.00000000	
