# total energy = -2069.13415037 eV

CRYSTAL
PRIMVEC
		2.97654425		0.00000000		0.00000000
		-1.48827212		2.57776079		0.00000000
		0.00000000		0.00000000		2.70832351
PRIMECORD
   2 1
Mg		0.00000000		0.00000000		0.00000000		-0.00000000		 0.00000005		-0.00000002
O		0.00000000		1.71850808		1.35416175		0.00000000		-0.00000005		 0.00000002
