# total energy = -38097.4600515 eV	

CRYSTAL	
PRIMVEC	
		6.11900773		0.00000000		0.00000000	
		0.00000000		11.46000198		0.00000000	
		0.00000000		0.00000000		8.25299944	
PRIMCOORD
   58 1	
O		1.65090767		1.40843404		8.19440382		-0.00089143		-0.00037741		-0.00037702	
O		4.46809883		10.05156550		0.05859623		 0.00089143		 0.00037741		 0.00037702	
O		4.46809883		4.32156573		8.19440382		 0.00089143		 0.00037741		-0.00037702	
O		1.65090767		7.13843380		0.05859623		-0.00089143		-0.00037741		 0.00037702	
O		1.65090767		10.05156550		0.05859623		-0.00089143		 0.00037741		 0.00037702	
O		4.46809883		1.40843404		8.19440382		 0.00089143		-0.00037741		-0.00037702	
O		4.46809883		7.13843380		0.05859623		 0.00089143		-0.00037741		 0.00037702	
O		1.65090767		4.32156573		8.19440382		-0.00089143		 0.00037741		-0.00037702	
O		3.05950386		5.60966948		6.23596644		0.00000000		-0.00003188		 0.00017794	
O		3.05950386		5.85032944		2.01703299		0.00000000		 0.00003188		-0.00017794	
O		3.05950386		0.12033029		6.23596644		-0.00000000		 0.00003188		 0.00017794	
O		3.05950386		11.33966925		2.01703299		-0.00000000		-0.00003188		-0.00017794	
O		0.00000000		2.86499958		5.91574959		0.00000000		0.00000000		-0.00023307	
O		0.00000000		8.59499934		2.33724985		0.00000000		0.00000000		 0.00023307	
O		0.00000000		2.86499958		1.80493105		0.00000000		0.00000000		-0.00016338	
O		0.00000000		8.59499934		6.44806900		0.00000000		0.00000000		 0.00016338	
O		3.05950386		8.59499934		5.93143077		0.00000000		0.00000000		 0.00031172	
O		3.05950386		2.86499958		2.32156867		0.00000000		0.00000000		-0.00031172	
O		3.05950386		8.59499934		1.78924987		0.00000000		0.00000000		 0.00052975	
O		3.05950386		2.86499958		6.46374956		0.00000000		0.00000000		-0.00052975	
O		0.00000000		11.33966925		2.10946672		0.00000000		 0.00018960		 0.00039195	
O		0.00000000		0.12033029		6.14353394		-0.00000000		-0.00018960		-0.00039195	
O		0.00000000		5.85032944		2.10946672		0.00000000		-0.00018960		 0.00039195	
O		0.00000000		5.60966948		6.14353394		0.00000000		 0.00018960		-0.00039195	
O		4.71041154		7.13843380		4.06790410		-0.00040139		-0.00004768		-0.00000977	
O		1.40859497		4.32156573		4.18509595		 0.00040139		 0.00004768		 0.00000977	
O		1.40859497		10.05156550		4.06790410		 0.00040139		 0.00004768		-0.00000977	
O		4.71041154		1.40843404		4.18509595		-0.00040139		-0.00004768		 0.00000977	
O		4.71041154		4.32156573		4.18509595		-0.00040139		 0.00004768		 0.00000977	
O		1.40859497		7.13843380		4.06790410		 0.00040139		-0.00004768		-0.00000977	
O		1.40859497		1.40843404		4.18509595		 0.00040139		-0.00004768		 0.00000977	
O		4.71041154		10.05156550		4.06790410		-0.00040139		 0.00004768		-0.00000977	
H		3.05950386		8.59499934		4.88164952		0.00000000		0.00000000		 0.00088669	
H		3.05950386		2.86499958		3.37135114		0.00000000		0.00000000		-0.00088669	
H		0.00000000		2.86499958		2.85471291		0.00000000		0.00000000		-0.00025266	
H		0.00000000		8.59499934		5.39828652		0.00000000		0.00000000		 0.00025266	
Mg		3.05950386		5.72999977		4.12649972		0.00000000		0.00000000		0.00000000	
Mg		3.05950386		0.00000000		4.12649972		-0.00000000		0.00000000		0.00000000	
Mg		0.00000000		0.00000000		0.00000000		0.00000000		0.00000000		0.00000000	
Mg		0.00000000		5.72999977		0.00000000		0.00000000		0.00000000		0.00000000	
Mg		1.52975193		1.44854413		2.06324986		-0.00041217		-0.00006006		-0.00011203	
Mg		4.58925580		10.01145540		6.18974958		 0.00041217		 0.00006006		 0.00011203	
Mg		4.58925580		4.28145563		2.06324986		 0.00041217		 0.00006006		-0.00011203	
Mg		1.52975193		7.17854390		6.18974958		-0.00041217		-0.00006006		 0.00011203	
Mg		1.52975193		10.01145540		6.18974958		-0.00041217		 0.00006006		 0.00011203	
Mg		4.58925580		1.44854413		2.06324986		 0.00041217		-0.00006006		-0.00011203	
Mg		4.58925580		7.17854390		6.18974958		 0.00041217		-0.00006006		 0.00011203	
Mg		1.52975193		4.28145563		2.06324986		-0.00041217		 0.00006006		-0.00011203	
Mg		0.00000000		2.86499958		8.00623454		0.00000000		0.00000000		-0.00057905	
Mg		0.00000000		8.59499934		0.24676490		0.00000000		0.00000000		 0.00057905	
Si		3.05950386		7.10634573		0.96230024		0.00000000		 0.00021713		 0.00000656	
Si		3.05950386		4.35365381		7.29070042		0.00000000		-0.00021713		-0.00000656	
Si		3.05950386		10.08365357		0.96230024		0.00000000		-0.00021713		 0.00000656	
Si		3.05950386		1.37634596		7.29070042		0.00000000		 0.00021713		-0.00000656	
Si		0.00000000		1.37634596		5.08879996		0.00000000		 0.00004362		-0.00043279	
Si		0.00000000		10.08365357		3.16420009		0.00000000		-0.00004362		 0.00043279	
Si		0.00000000		4.35365381		5.08879996		0.00000000		-0.00004362		-0.00043279	
Si		0.00000000		7.10634573		3.16420009		0.00000000		 0.00004362		 0.00043279	
