# total energy = -11146.2335461 eV

CRYSTAL
PRIMVEC
		7.44099980		0.00000000		0.00000000
		0.00000000		4.74075026		0.00000000
		0.00000000		0.00000000		8.29199718
PRIMECORD
   12 1
Ca		0.14547229		1.18518682		5.64411591		-0.00021046		0.00000000		 0.00041216
Ca		7.29552751		3.55556195		2.64788424		 0.00021046		0.00000000		-0.00041216
Ca		3.57502761		3.55556195		1.49811584		 0.00021046		0.00000000		 0.00041216
Ca		3.86597219		1.18518682		6.79388358		-0.00021046		0.00000000		-0.00041216
Si		2.01346014		1.18518682		3.19739464		 0.00021361		0.00000000		-0.00026433
Si		5.42753966		3.55556195		5.09460478		-0.00021361		0.00000000		 0.00026433
Si		1.70703976		3.55556195		7.34339471		-0.00021361		0.00000000		-0.00026433
Si		5.73396003		1.18518682		0.94860470		 0.00021361		0.00000000		 0.00026433
Mg		1.07254571		1.18518682		0.52919498		 0.00051818		0.00000000		-0.00047491
Mg		6.36845409		3.55556195		7.76280369		-0.00051818		0.00000000		 0.00047491
Mg		2.64795419		3.55556195		4.67519505		-0.00051818		0.00000000		-0.00047491
Mg		4.79304561		1.18518682		3.61680361		 0.00051818		0.00000000		 0.00047491
