# total energy = -11146.5168497 eV

CRYSTAL
PRIMVEC
		7.44099980		0.00000000		0.00000000
		0.00000000		4.18949867		0.00000000
		0.00000000		0.00000000		8.29199718
PRIMECORD
   12 1
Ca		0.14547229		1.04737504		5.64411591		-0.00039886		-0.00000000		 0.00028129
Ca		7.29552751		3.14212512		2.64788424		 0.00039886		0.00000000		-0.00028129
Ca		3.57502761		3.14212512		1.49811584		 0.00039886		0.00000000		 0.00028129
Ca		3.86597219		1.04737504		6.79388358		-0.00039886		0.00000000		-0.00028129
Si		2.01346014		1.04737504		3.19739464		 0.00008884		0.00000000		-0.00006906
Si		5.42753966		3.14212512		5.09460478		-0.00008884		-0.00000000		 0.00006906
Si		1.70703976		3.14212512		7.34339471		-0.00008884		-0.00000000		-0.00006906
Si		5.73396003		1.04737504		0.94860470		 0.00008884		0.00000000		 0.00006906
Mg		1.07254571		1.04737504		0.52919498		-0.00038281		0.00000000		-0.00021303
Mg		6.36845409		3.14212512		7.76280369		 0.00038281		-0.00000000		 0.00021303
Mg		2.64795419		3.14212512		4.67519505		 0.00038281		0.00000000		-0.00021303
Mg		4.79304561		1.04737504		3.61680361		-0.00038281		0.00000000		 0.00021303
