# total energy = -4139.22998252 eV

CRYSTAL
PRIMVEC
		3.30778719		0.00000000		0.00000000
		-1.65389360		2.86462971		0.00000000
		0.00000000		0.00000000		5.10745497
PRIMECORD
   4 1
Mg		0.00000000		1.90975226		0.01103114		0.00000000		-0.00000000		-0.00006707
Mg		1.65389293		0.95487613		2.56475730		0.00000000		0.00000000		-0.00006707
O		0.00000000		1.90975226		2.05544507		0.00000000		0.00000000		 0.00006707
O		1.65389293		0.95487613		4.60917222		0.00000000		0.00000000		 0.00006707
