# total energy = -49428.2698011 eV	

CRYSTAL	
PRIMVEC	
		18.23299464		-1.45863591		0.00000000	
		-0.70553018		8.81910900		0.00000000	
		0.00000000		0.00000000		5.18019239	
PRIMCOORD
   80 1	
Mg		6.39959153		5.21968687		4.48760693		-0.00020401		-0.00028862		-0.00000232	
Mg		11.12788025		2.14077341		0.69259278		 0.00020401		 0.00028862		 0.00000232	
Mg		2.01137927		2.87009320		1.89750707		 0.00020401		 0.00028862		-0.00000232	
Mg		15.51609068		4.49036708		3.28269264		-0.00020401		-0.00028862		 0.00000232	
Mg		11.26320076		0.44926974		3.28269264		-0.00009903		-0.00069278		 0.00026713	
Mg		6.26427102		6.91119054		1.89750707		 0.00009903		 0.00069278		-0.00026713	
Mg		15.38077017		6.18187075		0.69259278		 0.00009903		 0.00069278		 0.00026713	
Mg		2.14669978		1.17858952		4.48760693		-0.00009903		-0.00069278		-0.00026713	
Mg		6.52828329		3.74690450		1.85917410		-0.00008179		 0.00025213		 0.00022954	
Mg		10.99918848		3.61355578		3.32102561		 0.00008179		-0.00025213		-0.00022954	
Mg		1.88268750		4.34287557		4.44927395		 0.00008179		-0.00025213		 0.00022954	
Mg		15.64478427		3.01758471		0.73092576		-0.00008179		 0.00025213		-0.00022954	
Mg		10.66448600		7.79733769		0.73092576		-0.00006047		-0.00043047		 0.00010284	
Mg		6.86298760		-0.43687742		4.44927395		 0.00006047		 0.00043047		-0.00010284	
Mg		15.97948492		-1.16619720		3.32102561		 0.00006047		 0.00043047		 0.00010284	
Mg		1.54798502		8.52665748		1.85917410		-0.00006047		-0.00043047		-0.00010284	
Si		4.70911034		2.61834887		0.26211730		 0.00003762		 0.00011742		-0.00000410	
Si		12.81836144		4.74211324		4.91808241		-0.00003762		-0.00011742		 0.00000410	
Si		3.70186229		5.47143303		2.85221716		-0.00003762		-0.00011742		-0.00000410	
Si		13.82560949		1.88902725		2.32798255		 0.00003762		 0.00011742		 0.00000410	
Si		12.68882645		6.36129879		2.32798255		 0.00002786		 0.00003583		 0.00002424	
Si		4.83864533		0.99916148		2.85221716		-0.00002786		-0.00003583		-0.00002424	
Si		13.95514448		0.26984170		4.91808241		-0.00002786		-0.00003583		 0.00002424	
Si		3.57232730		7.09061858		0.26211730		 0.00002786		 0.00003583		-0.00002424	
Si		8.39710420		2.28475118		4.13431871		-0.00041685		 0.00024445		 0.00009297	
Si		9.13036758		5.07570727		1.04588283		 0.00041685		-0.00024445		-0.00009297	
Si		0.01386843		5.80502706		1.54421885		 0.00041685		-0.00024445		 0.00009297	
Si		17.51360335		1.55543139		3.63598269		-0.00041685		 0.00024445		-0.00009297	
Si		9.00704064		6.61728670		3.63598269		-0.00043915		-0.00008800		-0.00015583	
Si		8.52042931		0.74317358		1.54421885		 0.00043915		 0.00008800		 0.00015583	
Si		17.63693029		0.01385379		1.04588283		 0.00043915		 0.00008800		-0.00015583	
Si		-0.10945851		7.34660648		4.13431871		-0.00043915		-0.00008800		 0.00015583	
O		3.10538272		2.73700605		0.17612647		 0.00011079		 0.00021069		 0.00009069	
O		14.42208905		4.62345240		5.00407324		-0.00011079		-0.00021069		-0.00009069	
O		5.30558990		5.35277219		2.76622632		-0.00011079		-0.00021069		 0.00009069	
O		12.22188187		2.00768626		2.41397339		 0.00011079		 0.00021069		-0.00009069	
O		14.29410699		6.22323825		2.41397339		 0.00030704		 0.00013759		-0.00083927	
O		3.23336479		1.13722203		2.76622632		-0.00030704		-0.00013759		 0.00083927	
O		12.34986394		0.40790224		5.00407324		-0.00030704		-0.00013759		-0.00083927	
O		5.17760784		6.95255804		0.17612647		 0.00030704		 0.00013759		 0.00083927	
O		5.32294647		3.98090449		0.22274904		 0.00041337		 0.00003872		 0.00004429	
O		12.20452530		3.37955579		4.95745250		-0.00041337		-0.00003872		-0.00004429	
O		3.08802615		4.10887558		2.81284890		-0.00041337		-0.00003872		 0.00004429	
O		14.43944562		3.25158470		2.36735081		 0.00041337		 0.00003872		-0.00004429	
O		12.55319864		-0.97884356		2.36735081		 0.00032706		 0.00000771		-0.00013170	
O		4.97427313		8.33930384		2.81284890		-0.00032706		-0.00000771		 0.00013170	
O		14.09077411		7.60998406		4.95745250		-0.00032706		-0.00000771		-0.00013170	
O		3.43669766		-0.24952378		0.22274904		 0.00032706		 0.00000771		 0.00013170	
O		5.35857234		1.52012927		4.30992753		-0.00012539		 0.00019501		-0.00025856	
O		12.16889943		5.84033100		0.87027400		 0.00012539		-0.00019501		 0.00025856	
O		3.05239845		6.56965079		1.71982768		 0.00012539		-0.00019501		-0.00025856	
O		14.47507332		0.79080949		3.46037386		-0.00012539		 0.00019501		 0.00025856	
O		12.20784334		5.35351664		3.46037386		-0.00027678		-0.00011867		 0.00014675	
O		5.31962844		2.00694364		1.71982768		 0.00027678		 0.00011867		-0.00014675	
O		14.43612759		1.27762385		0.87027400		 0.00027678		 0.00011867		 0.00014675	
O		3.09134419		6.08283643		4.30992753		-0.00027678		-0.00011867		-0.00014675	
O		10.00972502		2.19079267		4.13379924		 0.00003127		-0.00022275		 0.00058840	
O		7.51774676		5.16966761		1.04640047		-0.00003127		 0.00022275		-0.00058840	
O		16.63424591		4.44034782		1.54369938		-0.00003127		 0.00022275		 0.00058840	
O		0.89322587		2.92011246		3.63650033		 0.00003127		-0.00022275		-0.00058840	
O		7.38877514		6.78179822		3.63650033		-0.00021772		 0.00053124		 0.00023436	
O		10.13869664		0.57866206		1.54369938		 0.00021772		-0.00053124		-0.00023436	
O		1.02219566		1.30798184		1.04640047		 0.00021772		-0.00053124		 0.00023436	
O		16.50527612		6.05247844		4.13379924		-0.00021772		 0.00053124		-0.00023436	
O		7.54275639		3.63420112		3.57433751		 0.00017452		-0.00013390		 0.00033149	
O		9.98471539		3.72625916		1.60586220		-0.00017452		 0.00013390		-0.00033149	
O		0.86821624		4.45557895		0.98423765		-0.00017452		 0.00013390		 0.00033149	
O		16.65925554		2.90488133		4.19596206		 0.00017452		-0.00013390		-0.00033149	
O		9.65509422		7.84654299		4.19596206		-0.00006446		 0.00044578		-0.00024235	
O		7.87237756		-0.48608271		0.98423765		 0.00006446		-0.00044578		 0.00024235	
O		16.98887854		-1.21540250		1.60586220		 0.00006446		-0.00044578		-0.00024235	
O		0.53859324		8.57586278		3.57433751		-0.00006446		 0.00044578		 0.00024235	
O		8.03620499		1.06669828		3.12366117		-0.00044434		 0.00020390		-0.00046892	
O		9.49126496		6.29376200		2.05654037		 0.00044434		-0.00020390		 0.00046892	
O		0.37476764		7.02308179		0.53356132		 0.00044434		-0.00020390		-0.00046892	
O		17.15270414		0.33737849		4.64664022		-0.00044434		 0.00020390		 0.00046892	
O		9.56873207		5.32542494		4.64664022		-0.00000933		 0.00040675		-0.00023760	
O		7.95873788		2.03503534		0.53356132		 0.00000933		-0.00040675		 0.00023760	
O		17.07523703		1.30571556		2.05654037		 0.00000933		-0.00040675		-0.00023760	
O		0.45223292		6.05474472		3.12366117		-0.00000933		 0.00040675		 0.00023760	
