# total energy = -49413.3853686 eV	

CRYSTAL	
PRIMVEC	
		18.23300630		-2.91728913		0.00000000	
		-1.41105127		8.81909813		0.00000000	
		0.00000000		0.00000000		5.18020042	
PRIMCOORD
   80 1	
Mg		5.93810546		4.67080165		4.48760761		 0.00002937		-0.00089516		 0.00016934	
Mg		10.88383850		1.23101842		0.69259281		-0.00002937		 0.00089516		-0.00016934	
Mg		1.76733719		2.68965930		1.89750740		-0.00002937		 0.00089516		 0.00016934	
Mg		15.05460492		3.21216077		3.28269303		 0.00002937		-0.00089516		-0.00016934	
Mg		11.15447864		-0.46048339		3.28269303		-0.00017334		-0.00016576		-0.00018095	
Mg		5.66746532		6.36230531		1.89750740		 0.00017334		 0.00016576		 0.00018095	
Mg		14.78396478		4.90366444		0.69259281		 0.00017334		 0.00016576		-0.00018095	
Mg		2.03797733		0.99815564		4.48760761		-0.00017334		-0.00016576		 0.00018095	
Mg		6.18455104		3.19714326		1.85917425		-0.00038937		-0.00075806		-0.00084259	
Mg		10.63739292		2.70467681		3.32102617		 0.00038937		 0.00075806		 0.00084259	
Mg		1.52089346		4.16331768		4.44927446		 0.00038937		 0.00075806		-0.00084259	
Mg		15.30105049		1.73850239		0.73092596		-0.00038937		-0.00075806		 0.00084259	
Mg		9.96798834		6.88845914		0.73092596		 0.00034124		 0.00029502		 0.00078039	
Mg		6.85395562		-0.98663723		4.44927446		-0.00034124		-0.00029502		-0.00078039	
Mg		15.97045508		-2.44527810		3.32102617		-0.00034124		-0.00029502		 0.00078039	
Mg		0.85148888		8.34709817		1.85917425		 0.00034124		 0.00029502		-0.00078039	
Si		4.46795910		2.22232727		0.26211859		 0.00034690		 0.00031354		-0.00015130	
Si		12.35398301		3.67949465		4.91808184		-0.00034690		-0.00031354		 0.00015130	
Si		3.23748355		5.13813367		2.85221880		-0.00034690		-0.00031354		-0.00015130	
Si		13.58446041		0.76368640		2.32798162		 0.00034690		 0.00031354		 0.00015130	
Si		12.09491297		5.29868050		2.32798162		-0.00021630		-0.00015665		 0.00029301	
Si		4.72702914		0.60313957		2.85221880		 0.00021630		 0.00015665		-0.00029301	
Si		13.84353044		-0.85549946		4.91808184		 0.00021630		 0.00015665		 0.00029301	
Si		2.97841351		6.75731953		0.26211859		-0.00021630		-0.00015665		-0.00029301	
Si		8.15905710		1.59394063		4.13431854		-0.00029172		-0.00054118		-0.00001761	
Si		8.66288501		4.30787944		1.04588188		 0.00029172		 0.00054118		 0.00001761	
Si		-0.45361445		5.76652031		1.54421833		 0.00029172		 0.00054118		-0.00001761	
Si		17.27555840		0.13530161		3.63598209		-0.00029172		-0.00054118		 0.00001761	
Si		8.41623263		5.84945729		3.63598209		-0.00012676		 0.00067903		 0.00058530	
Si		8.40571133		0.05236278		1.54421833		 0.00012676		-0.00067903		-0.00058530	
Si		17.52221078		-1.40627809		1.04588188		 0.00012676		-0.00067903		 0.00058530	
Si		-0.70026683		7.30809816		4.13431854		-0.00012676		 0.00067903		-0.00058530	
O		2.86500944		2.46934711		0.17612752		 0.00081210		-0.00085024		-0.00046879	
O		13.95693451		3.43247297		5.00407291		-0.00081210		 0.00085024		 0.00046879	
O		4.84043506		4.89111199		2.76622773		-0.00081210		 0.00085024		-0.00046879	
O		11.98150705		1.01070623		2.41397270		 0.00081210		-0.00085024		 0.00046879	
O		13.70097028		5.03225959		2.41397270		-0.00020597		 0.00054353		 0.00068684	
O		3.12097368		0.86956233		2.76622773		 0.00020597		-0.00054353		-0.00068684	
O		12.23747314		-0.58907854		5.00407291		 0.00020597		-0.00054353		 0.00068684	
O		4.58446897		6.49089862		0.17612752		-0.00020597		 0.00054353		-0.00068684	
O		4.96813651		3.52668461		0.22274956		 0.00040376		-0.00026329		 0.00028695	
O		11.85380745		2.37513546		4.95745271		-0.00040376		 0.00026329		-0.00028695	
O		2.73730799		3.83377633		2.81284977		-0.00040376		 0.00026329		 0.00028695	
O		14.08463596		2.06804559		2.36735065		 0.00040376		-0.00026329		-0.00028695	
O		12.55115128		-1.98326397		2.36735065		 0.00075467		-0.00018439		 0.00054949	
O		4.27079267		7.88508404		2.81284977		-0.00075467		 0.00018439		-0.00054949	
O		13.38729213		6.42644316		4.95745271		-0.00075467		 0.00018439		 0.00054949	
O		3.43465182		-0.52462309		0.22274956		 0.00075467		-0.00018439		-0.00054949	
O		5.20166403		1.07889159		4.30992720		-0.00012988		-0.00072155		 0.00008649	
O		11.62027992		4.82293032		0.87027323		 0.00012988		 0.00072155		-0.00008649	
O		2.50378046		6.28156935		1.71982698		 0.00012988		 0.00072155		 0.00008649	
O		14.31816349		-0.37974928		3.46037344		-0.00012988		-0.00072155		-0.00008649	
O		11.69817044		4.33611413		3.46037344		 0.00036528		-0.00001068		 0.00006140	
O		5.12377351		1.56570410		1.71982698		-0.00036528		 0.00001068		-0.00006140	
O		14.24027297		0.10706507		0.87027323		-0.00036528		 0.00001068		 0.00006140	
O		2.58166914		5.79475500		4.30992720		 0.00036528		-0.00001068		-0.00006140	
O		9.76885724		1.37074607		4.13379968		-0.00039259		-0.00013821		 0.00016870	
O		7.05308672		4.53107400		1.04640074		 0.00039259		 0.00013821		-0.00016870	
O		16.16958617		3.07243313		1.54369947		 0.00039259		 0.00013821		 0.00016870	
O		0.65235778		2.82938510		3.63650096		-0.00039259		-0.00013821		-0.00016870	
O		6.79514489		6.14320626		3.63650096		-0.00028149		-0.00012173		 0.00017429	
O		10.02679907		-0.24138434		1.54369947		 0.00028149		 0.00012173		-0.00017429	
O		0.91029961		1.21725468		1.04640074		 0.00028149		 0.00012173		 0.00017429	
O		15.91164435		4.68456539		4.13379968		-0.00028149		-0.00012173		-0.00017429	
O		7.20156119		3.00348517		3.57433700		-0.00008701		 0.00028148		-0.00015698	
O		9.62038092		2.89833491		1.60586158		 0.00008701		-0.00028148		 0.00015698	
O		0.50388146		4.35697578		0.98423863		 0.00008701		-0.00028148		-0.00015698	
O		16.31806065		1.54484429		4.19596179		-0.00008701		 0.00028148		 0.00015698	
O		8.96113573		7.01861827		4.19596179		 0.00027067		 0.00000509		 0.00074527	
O		7.86080823		-1.11679820		0.98423863		-0.00027067		-0.00000509		-0.00074527	
O		16.97730584		-2.57543723		1.60586158		-0.00027067		-0.00000509		 0.00074527	
O		-0.15536373		8.47725915		3.57433700		 0.00027067		 0.00000509		-0.00074527	
O		7.89855603		0.41279038		3.12366032		-0.00009733		 0.00024640		-0.00069591	
O		8.92338607		5.48902969		2.05654010		 0.00009733		-0.00024640		 0.00069591	
O		-0.19311338		6.94767056		0.53356011		 0.00009733		-0.00024640		-0.00069591	
O		17.01505734		-1.04585049		4.64664032		-0.00009733		 0.00024640		 0.00069591	
O		9.07832142		4.52069303		4.64664032		-0.00017415		-0.00015048		-0.00018620	
O		7.74362254		1.38112704		0.53356011		 0.00017415		 0.00015048		 0.00018620	
O		16.86012200		-0.07751383		2.05654010		 0.00017415		 0.00015048		-0.00018620	
O		-0.03817989		5.97933206		3.12366032		-0.00017415		-0.00015048		 0.00018620	
