# total energy = -13384.5489956 eV	

CRYSTAL	
PRIMVEC	
		3.05300001		0.00000000		0.00000000	
		-1.52650001		2.64397739		0.00000000	
		0.00000000		0.00000000		20.12500056	
PRIMCOORD
   18 1	
O		0.00000000		0.00000000		6.26491295		0.00000000		0.00000000		-0.00020753	
O		0.00000000		0.00000000		13.86008700		0.00000000		-0.00000000		 0.00020753	
O		1.52650001		0.88132508		8.61752514		0.00000000		0.00000000		-0.00002619	
O		0.00000000		1.76264986		11.50747511		0.00000000		0.00000000		 0.00002619	
O		1.52650001		0.88132508		1.44497514		0.00000000		-0.00000000		-0.00010910	
O		0.00000000		1.76264986		18.68002512		0.00000000		-0.00000000		 0.00010910	
O		0.00000000		1.76264986		3.79758794		0.00000000		-0.00000000		-0.00038766	
O		1.52650001		0.88132508		16.32741201		0.00000000		0.00000000		 0.00038766	
H		1.52650001		0.88132508		9.60767502		0.00000000		0.00000000		-0.00028445	
H		0.00000000		1.76264986		10.51732493		0.00000000		0.00000000		 0.00028445	
H		1.52650001		0.88132508		0.45482495		0.00000000		0.00000000		-0.00023263	
H		0.00000000		1.76264986		19.67017500		0.00000000		0.00000000		 0.00023263	
Mg		0.00000000		1.76264986		7.50461291		0.00000000		-0.00000000		-0.00007679	
Mg		1.52650001		0.88132508		12.62038704		-0.00000000		0.00000000		 0.00007679	
Mg		0.00000000		0.00000000		2.55788798		0.00000000		-0.00000000		-0.00030144	
Mg		0.00000000		0.00000000		17.56711319		0.00000000		-0.00000000		 0.00030144	
Mg		1.52650001		0.88132508		5.03326191		0.00000000		0.00000000		-0.00030245	
Mg		0.00000000		1.76264986		15.09173712		0.00000000		-0.00000000		 0.00030245	
