# total energy = -20631.7404162 eV	

CRYSTAL	
PRIMVEC	
		10.05000123		0.00000000		-1.20599772	
		0.00000000		5.75000116		0.00000000	
		-0.58439950		0.00000000		4.86999582	
PRIMCOORD
   28 1	
Si		2.82144960		0.00000000		3.97507051		-0.00051000		-0.00000000		 0.00033323	
Si		6.64415010		0.00000000		-0.31107139		 0.00051000		-0.00000000		-0.00033323	
Si		7.84644920		2.87499957		3.37207064		-0.00050181		-0.00000000		 0.00028646	
Si		1.61914949		2.87499957		0.29192949		 0.00050181		-0.00000000		-0.00028646	
Mg		0.00000000		0.00000000		0.00000000		0.00000000		0.00000000		0.00000000	
Mg		5.02499960		2.87499957		-0.60299987		0.00000000		0.00000000		0.00000000	
Mg		4.73279985		0.00000000		1.83200006		0.00000000		0.00000000		0.00000000	
Mg		-0.29219975		2.87499957		2.43499993		0.00000000		0.00000000		0.00000000	
Mg		2.22030005		1.43750029		2.13350000		-0.00001641		 0.00000083		 0.00002106	
Mg		7.24529965		4.31249985		1.53050013		 0.00001641		-0.00000083		-0.00002106	
Mg		7.24529965		1.43750029		1.53050013		 0.00001641		 0.00000083		-0.00002106	
Mg		2.22030005		4.31249985		2.13350000		-0.00001641		-0.00000083		 0.00002106	
O		8.10523286		0.00000000		0.09294417		 0.00051987		0.00000000		-0.00000454	
O		1.36036684		0.00000000		3.57105596		-0.00051987		0.00000000		 0.00000454	
O		3.08023326		2.87499957		0.69594404		 0.00047907		0.00000000		 0.00003902	
O		6.38536644		2.87499957		2.96805609		-0.00047907		0.00000000		-0.00003902	
O		3.22019560		0.00000000		0.74298549		 0.00005801		0.00000000		 0.00053774	
O		6.24540411		0.00000000		2.92101261		-0.00005801		0.00000000		-0.00053774	
O		8.24519520		2.87499957		0.13998562		 0.00007375		0.00000000		 0.00050479	
O		1.22040349		2.87499957		3.52401248		-0.00007375		0.00000000		-0.00050479	
O		0.78087454		1.55422532		0.98770550		-0.00007741		 0.00022993		-0.00011829	
O		8.68472517		4.19577482		2.67629361		 0.00007741		-0.00022993		 0.00011829	
O		8.68472517		1.55422532		2.67629361		 0.00007741		 0.00022993		 0.00011829	
O		0.78087454		4.19577482		0.98770550		-0.00007741		-0.00022993		-0.00011829	
O		5.80587515		4.42922489		0.38470563		-0.00004481		 0.00023173		-0.00015141	
O		3.65972556		1.32077526		3.27929349		 0.00004481		-0.00023173		 0.00015141	
O		3.65972556		4.42922489		3.27929349		 0.00004481		 0.00023173		 0.00015141	
O		5.80587515		1.32077526		0.38470563		-0.00004481		-0.00023173		-0.00015141	
