# total energy = -20632.4916222 eV	

CRYSTAL	
PRIMVEC	
		10.05000123		0.00000000		1.20599772	
		0.00000000		5.75000116		0.00000000	
		0.58439950		0.00000000		4.86999582	
PRIMCOORD
   28 1	
Si		3.87184937		0.00000000		4.77826631		-0.00066809		0.00000000		 0.00008426	
Si		6.76254933		0.00000000		1.29773331		 0.00066809		0.00000000		-0.00008426	
Si		8.89684999		2.87499957		5.38126719		-0.00065397		-0.00000000		 0.00010716	
Si		1.73754973		2.87499957		0.69473344		 0.00065397		-0.00000000		-0.00010716	
Mg		0.00000000		0.00000000		0.00000000		0.00000000		0.00000000		0.00000000	
Mg		5.02499960		2.87499957		0.60299987		0.00000000		0.00000000		0.00000000	
Mg		5.31719935		0.00000000		3.03799981		0.00000000		0.00000000		0.00000000	
Mg		0.29219975		2.87499957		2.43499993		0.00000000		0.00000000		0.00000000	
Mg		2.80469955		1.43750029		2.73649987		 0.00001402		 0.00000108		-0.00000298	
Mg		7.82970016		4.31249985		3.33949974		-0.00001402		-0.00000108		 0.00000298	
Mg		7.82970016		1.43750029		3.33949974		-0.00001402		 0.00000108		 0.00000298	
Mg		2.80469955		4.31249985		2.73649987		 0.00001402		-0.00000108		-0.00000298	
O		8.36470685		0.00000000		2.06933600		 0.00031048		0.00000000		 0.00020881	
O		2.26969287		0.00000000		4.00666260		-0.00031048		0.00000000		-0.00020881	
O		3.33970724		2.87499957		1.46633613		 0.00031145		0.00000000		 0.00018746	
O		7.29469247		2.87499957		4.60966247		-0.00031145		0.00000000		-0.00018746	
O		3.49521409		0.00000000		1.54883631		 0.00024641		-0.00000000		 0.00004962	
O		7.13918562		0.00000000		4.52716431		-0.00024641		-0.00000000		-0.00004962	
O		8.52021471		2.87499957		2.15183619		 0.00023063		0.00000000		 0.00006098	
O		2.11418602		2.87499957		3.92416343		-0.00023063		0.00000000		-0.00006098	
O		1.04420504		1.55422532		1.20671639		-0.00039766		 0.00081201		 0.00008602	
O		9.59019467		4.19577482		4.86928424		 0.00039766		-0.00081201		-0.00008602	
O		9.59019467		1.55422532		4.86928424		 0.00039766		 0.00081201		-0.00008602	
O		1.04420504		4.19577482		1.20671639		-0.00039766		-0.00081201		 0.00008602	
O		6.06920465		4.42922489		1.80971626		-0.00039307		 0.00081385		 0.00009865	
O		4.56519507		1.32077526		4.26628335		 0.00039307		-0.00081385		-0.00009865	
O		4.56519507		4.42922489		4.26628335		 0.00039307		 0.00081385		-0.00009865	
O		6.06920465		1.32077526		1.80971626		-0.00039307		-0.00081385		 0.00009865	
