# total energy = -4138.86084004 eV

CRYSTAL
PRIMVEC
		3.30778721		-0.39693367		0.00000000
		-1.99764792		3.06309391		0.00000000
		0.00000000		0.00000000		4.98288093
PRIMECORD
   4 1
Mg		-0.22917010		1.90975183		0.01076213		-0.00080048		-0.00042127		 0.00042850
Mg		1.53930772		0.75640908		2.50220194		 0.00080048		 0.00042127		 0.00042850
O		-0.22917010		1.90975183		2.00531175		 0.00071810		 0.00018322		-0.00042850
O		1.53930772		0.75640908		4.49675255		-0.00071810		-0.00018322		-0.00042850
