# total energy = -10069.2492692 eV	

CRYSTAL	
PRIMVEC	
		4.84737576		0.00000000		0.00000000	
		0.00000000		4.84737576		0.00000000	
		0.00000000		0.00000000		4.84737576	
PRIMCOORD
   12 1	
Mg		0.00000000		0.00001738		0.00000724		-0.00000285		-0.00000454		-0.00000494	
Mg		2.42368788		0.00001787		2.42368257		 0.00000419		-0.00000587		 0.00000382	
Mg		0.00000000		2.42367436		2.42367629		-0.00000401		 0.00000297		 0.00000585	
Mg		2.42369367		2.42367339		0.00001304		 0.00000161		 0.00000602		-0.00000523	
O		0.43133216		2.85501859		4.41604794		 0.00000905		 0.00001086		-0.00001101	
O		4.41604359		1.99235765		0.43133458		-0.00000955		-0.00000925		 0.00000906	
O		1.99235523		1.99235620		1.99235475		-0.00000593		-0.00000694		-0.00000577	
O		2.85502053		2.85502101		2.85502004		 0.00000810		 0.00000745		 0.00000789	
O		4.41604504		0.43133506		2.85502101		-0.00001012		 0.00000885		 0.00000893	
O		0.43133361		4.41604697		1.99235910		 0.00000803		-0.00000974		-0.00000898	
O		2.85502004		4.41604891		0.43133023		 0.00001085		-0.00001045		 0.00001066	
O		1.99235716		0.43133361		4.41604504		-0.00000934		 0.00001063		-0.00001024	
