# total energy = -10069.184179 eV	

CRYSTAL	
PRIMVEC	
		4.94824546		0.00000000		0.00000000	
		0.00000000		4.94824546		0.00000000	
		0.00000000		0.00000000		4.94824546	
PRIMCOORD
   12 1	
Mg		0.00000000		0.00000000		0.00000000		-0.00000047		-0.00000216		-0.00000199	
Mg		2.47412321		0.00000000		2.47412176		 0.00000087		-0.00000030		 0.00000003	
Mg		0.00000000		2.47412176		2.47411935		 0.00000115		 0.00000033		 0.00000197	
Mg		2.47412659		2.47412128		0.00000000		-0.00000104		 0.00000202		 0.00000006	
O		0.43511683		2.90922604		4.51313780		-0.00004378		-0.00003954		 0.00004093	
O		4.51312863		2.03900397		0.43511828		 0.00004236		 0.00004359		-0.00004224	
O		2.03900204		2.03900010		2.03900059		 0.00004830		 0.00004870		 0.00004808	
O		2.90924149		2.90922894		2.90923425		-0.00004779		-0.00004313		-0.00004583	
O		4.51313104		0.43512359		2.90923570		 0.00004093		-0.00004323		-0.00004025	
O		0.43511538		4.51313877		2.03900686		-0.00004011		 0.00003786		 0.00004163	
O		2.90923908		4.51313973		0.43511683		-0.00004239		 0.00003979		-0.00004372	
O		2.03900880		0.43512214		4.51313104		 0.00004197		-0.00004392		 0.00004134	
