# total energy = -14250.3883749 eV	

CRYSTAL	
PRIMVEC	
		8.05650009		0.00000000		0.00000000	
		0.00000000		7.86000205		0.00000000	
		0.00000000		0.00000000		5.02400123	
PRIMCOORD
   24 1	
O		1.13266335		2.82496342		1.27780361		 0.00023598		-0.00023294		 0.00028066	
O		6.92383674		5.03503783		1.27780361		-0.00023598		 0.00023294		 0.00028066	
O		2.89558670		6.75496283		3.74619600		-0.00023598		-0.00023294		-0.00028066	
O		5.16091420		1.10503680		3.74619600		 0.00023598		 0.00023294		-0.00028066	
O		0.66723934		1.46384592		3.96061975		 0.00044804		-0.00053068		 0.00075020	
O		7.38926075		6.39615371		3.96061975		-0.00044804		 0.00053068		 0.00075020	
O		1.50044338		7.20903523		1.06337986		-0.00049978		-0.00007101		 0.00005178	
O		6.55605670		0.65096521		1.06337986		 0.00049978		 0.00007101		 0.00005178	
O		3.36101071		5.39384695		1.06337986		-0.00044804		-0.00053068		-0.00075020	
O		4.69548938		2.46615429		1.06337986		 0.00044804		 0.00053068		-0.00075020	
O		2.52780666		3.27903501		3.96061975		 0.00049978		-0.00007101		-0.00005178	
O		5.52869342		4.58096543		3.96061975		-0.00049978		 0.00007101		-0.00005178	
O		0.00000000		3.93000022		4.11616338		0.00000000		0.00000000		 0.00022572	
O		4.02825004		0.00000000		0.90783704		0.00000000		0.00000000		-0.00022572	
Ca		2.67203493		1.32313673		2.54686673		-0.00049371		 0.00004072		 0.00079995	
Ca		5.38446515		6.53686290		2.54686673		 0.00049371		-0.00004072		 0.00079995	
Ca		1.35621511		5.25313695		2.47713289		 0.00049371		 0.00004072		-0.00079995	
Ca		6.70028497		2.60686268		2.47713289		-0.00049371		-0.00004072		-0.00079995	
Si		1.12718493		2.83030729		4.69934925		 0.00045330		-0.00020310		 0.00010286	
Si		6.92931516		5.02969315		4.69934925		-0.00045330		 0.00020310		 0.00010286	
Si		2.90106512		6.76030832		0.32465117		-0.00045330		-0.00020310		-0.00010286	
Si		5.15543497		1.09969293		0.32465117		 0.00045330		 0.00020310		-0.00010286	
Mg		0.00000000		0.00000000		0.00000000		0.00000000		0.00000000		-0.00028814	
Mg		4.02825004		3.93000022		0.00000000		0.00000000		0.00000000		 0.00028814	
