# total energy = -14249.8765185 eV	

CRYSTAL	
PRIMVEC	
		8.44949988		0.00000000		0.00000000	
		0.00000000		7.86000363		0.00000000	
		0.00000000		0.00000000		5.02399659	
PRIMCOORD
   24 1	
O		1.18791519		2.82496270		1.27780435		 0.00002882		 0.00052287		 0.00092842	
O		7.26158470		5.03503755		1.27780435		-0.00002882		-0.00052287		 0.00092842	
O		3.03683475		6.75496282		3.74619562		-0.00002882		 0.00052287		-0.00092842	
O		5.41266513		1.10503658		3.74619562		 0.00002882		-0.00052287		-0.00092842	
O		0.69978758		1.46384628		3.96062027		 0.00048683		-0.00000398		 0.00005177	
O		7.74971315		6.39615396		3.96062027		-0.00048683		 0.00000398		 0.00005177	
O		1.57363486		7.20903472		1.06337970		 0.00055823		-0.00010907		 0.00057958	
O		6.87586503		0.65096468		1.06337970		-0.00055823		 0.00010907		 0.00057958	
O		3.52496236		5.39384725		1.06337970		-0.00048683		-0.00000398		-0.00005177	
O		4.92453752		2.46615384		1.06337970		 0.00048683		 0.00000398		-0.00005177	
O		2.65111508		3.27903460		3.96062027		-0.00055823		-0.00010907		-0.00057958	
O		5.79838480		4.58096480		3.96062027		 0.00055823		 0.00010907		-0.00057958	
O		0.00000000		3.93000012		4.11616288		0.00000000		0.00000000		-0.00026618	
O		4.22474994		0.00000000		0.90783708		0.00000000		0.00000000		 0.00026618	
Ca		2.80237803		1.32313676		2.54686684		 0.00047335		-0.00024806		-0.00006624	
Ca		5.64712185		6.53686264		2.54686684		-0.00047335		 0.00024806		-0.00006624	
Ca		1.42237191		5.25313688		2.47713312		-0.00047335		-0.00024806		 0.00006624	
Ca		7.02712797		2.60686336		2.47713312		 0.00047335		 0.00024806		 0.00006624	
Si		1.18217037		2.83030701		4.69934906		-0.00020914		-0.00009562		 0.00083957	
Si		7.26733120		5.02969324		4.69934906		 0.00020914		 0.00009562		 0.00083957	
Si		3.04257957		6.76030798		0.32465091		 0.00020914		-0.00009562		-0.00083957	
Si		5.40691863		1.09969312		0.32465091		-0.00020914		 0.00009562		-0.00083957	
Mg		0.00000000		0.00000000		0.00000000		0.00000000		0.00000000		-0.00024705	
Mg		4.22474994		3.93000012		0.00000000		0.00000000		0.00000000		 0.00024705	
