
     Program PWSCF v.6.6 starts on  4Feb2024 at 13:34:19 

     This program is part of the open-source Quantum ESPRESSO suite
     for quantum simulation of materials; please cite
         "P. Giannozzi et al., J. Phys.:Condens. Matter 21 395502 (2009);
         "P. Giannozzi et al., J. Phys.:Condens. Matter 29 465901 (2017);
          URL http://www.quantum-espresso.org", 
     in publications or presentations arising from this work. More details at
     http://www.quantum-espresso.org/quote

     Parallel version (MPI & OpenMP), running on      16 processor cores
     Number of MPI processes:                16
     Threads/MPI process:                     1

     MPI processes distributed on     2 nodes
     R & G space division:  proc/nbgrp/npool/nimage =      16
     Fft bands division:     nmany     =       1
     Waiting for input...
     Reading input from standard input

     Current dimensions of program PWSCF are:
     Max number of different atomic species (ntypx) = 10
     Max number of k-points (npk) =  40000
     Max angular momentum in pseudopotentials (lmaxx) =  3

     IMPORTANT: XC functional enforced from input :
     Exchange-correlation= PBE
                           (   1   4   3   4   0   0   0)
     Any further DFT definition will be discarded
     Please, verify this is what you really want


     --------------------------------------------
     Parameters for DFT-D3 Dispersion Correction:
     --------------------------------------------
       Reference C6 values for interpolation: 

         atom   Coordination number   C6
         O          0.000            31.01
         O          0.993            25.63
         O          1.989            20.74
         Mg         0.000          1366.75
         Mg         0.963           902.54
         Mg         1.950           351.12

       Values used:

         atom   Coordination number  R0_AB[au]  C6      C8
         Mg        16.582            3.292    351.12  31436.69
         Mg        16.582            3.292    351.12  31436.69
         Mg        16.582            3.292    351.12  31436.69
         Mg        16.582            3.292    351.12  31436.69
         O          5.817            2.345     20.74    418.58
         O          5.817            2.345     20.74    418.58
         O          5.817            2.345     20.74    418.58
         O          5.817            2.345     20.74    418.58

         Molecular C6 ( Ry / a.u.^6 ) =      8251.69


     Subspace diagonalization in iterative solution of the eigenvalue problem:
     a serial algorithm will be used

     Found symmetry operation: I + (  0.0000 -0.5000 -0.5000)
     This is a supercell, fractional translations are disabled
 
     Parallelization info
     --------------------
     sticks:   dense  smooth     PW     G-vecs:    dense   smooth      PW
     Min         126     126     35                 4252     4252     619
     Max         127     127     36                 4255     4255     623
     Sum        2025    2025    561                68051    68051    9939
 


     bravais-lattice index     =            0
     lattice parameter (alat)  =       7.9576  a.u.
     unit-cell volume          =     503.9092 (a.u.)^3
     number of atoms/cell      =            8
     number of atomic types    =            2
     number of electrons       =        64.00
     number of Kohn-Sham states=           38
     kinetic-energy cutoff     =     100.0000  Ry
     charge density cutoff     =     400.0000  Ry
     convergence threshold     =      1.0E-06
     mixing beta               =       0.5000
     number of iterations used =            8  plain     mixing
     Exchange-correlation= PBE
                           (   1   4   3   4   0   0   0)
     nstep                     =          100


     celldm(1)=   7.957637  celldm(2)=   0.000000  celldm(3)=   0.000000
     celldm(4)=   0.000000  celldm(5)=   0.000000  celldm(6)=   0.000000

     crystal axes: (cart. coord. in units of alat)
               a(1) = (   1.000000   0.000000   0.000000 )  
               a(2) = (   0.000000   1.000000   0.000000 )  
               a(3) = (   0.000000   0.000000   1.000000 )  

     reciprocal axes: (cart. coord. in units 2 pi/alat)
               b(1) = (  1.000000  0.000000  0.000000 )  
               b(2) = (  0.000000  1.000000  0.000000 )  
               b(3) = (  0.000000  0.000000  1.000000 )  


     PseudoPot. # 1 for Mg read from file:
     ./Mg.upf
     MD5 check sum: 4c04d8c6e0476e83eaecaf72fa8acc4d
     Pseudo is Norm-conserving, Zval = 10.0
     Generated using ONCVPSP code by D. R. Hamann
     Using radial grid of 1510 points,  4 beta functions with: 
                l(1) =   0
                l(2) =   0
                l(3) =   1
                l(4) =   1

     PseudoPot. # 2 for O  read from file:
     ./O.upf
     MD5 check sum: 3e3f909f7470e8921608ab6b1f57bbae
     Pseudo is Norm-conserving + core correction, Zval =  6.0
     Generated using ONCVPSP code by D. R. Hamann
     Using radial grid of  936 points,  5 beta functions with: 
                l(1) =   0
                l(2) =   0
                l(3) =   1
                l(4) =   1
                l(5) =   2

     atomic species   valence    mass     pseudopotential
        Mg            10.00    24.30500     Mg( 1.00)
        O              6.00    15.99900     O ( 1.00)

     No symmetry found



   Cartesian axes

     site n.     atom                  positions (alat units)
         1           Mg  tau(   1) = (   0.0000000   0.0000000   0.0000000  )
         2           Mg  tau(   2) = (   0.0000000   0.5000000   0.5000000  )
         3           Mg  tau(   3) = (   0.5000000   0.0000000   0.5000000  )
         4           Mg  tau(   4) = (   0.5000000   0.5000000   0.0000000  )
         5           O   tau(   5) = (   0.5000000   0.5000000   0.5000000  )
         6           O   tau(   6) = (   0.5000000   0.0000000   0.0000000  )
         7           O   tau(   7) = (   0.0000000   0.5000000   0.0000000  )
         8           O   tau(   8) = (   0.0000000   0.0000000   0.5000000  )

     number of k points=    63  Gaussian smearing, width (Ry)=  0.0050
                       cart. coord. in units 2pi/alat
        k(    1) = (   0.0000000   0.0000000   0.0000000), wk =   0.0160000
        k(    2) = (   0.0000000   0.0000000   0.2000000), wk =   0.0320000
        k(    3) = (   0.0000000   0.0000000   0.4000000), wk =   0.0320000
        k(    4) = (   0.0000000   0.2000000   0.0000000), wk =   0.0320000
        k(    5) = (   0.0000000   0.2000000   0.2000000), wk =   0.0320000
        k(    6) = (   0.0000000   0.2000000   0.4000000), wk =   0.0320000
        k(    7) = (   0.0000000   0.2000000  -0.4000000), wk =   0.0320000
        k(    8) = (   0.0000000   0.2000000  -0.2000000), wk =   0.0320000
        k(    9) = (   0.0000000   0.4000000   0.0000000), wk =   0.0320000
        k(   10) = (   0.0000000   0.4000000   0.2000000), wk =   0.0320000
        k(   11) = (   0.0000000   0.4000000   0.4000000), wk =   0.0320000
        k(   12) = (   0.0000000   0.4000000  -0.4000000), wk =   0.0320000
        k(   13) = (   0.0000000   0.4000000  -0.2000000), wk =   0.0320000
        k(   14) = (   0.2000000   0.0000000   0.0000000), wk =   0.0320000
        k(   15) = (   0.2000000   0.0000000   0.2000000), wk =   0.0320000
        k(   16) = (   0.2000000   0.0000000   0.4000000), wk =   0.0320000
        k(   17) = (   0.2000000   0.0000000  -0.4000000), wk =   0.0320000
        k(   18) = (   0.2000000   0.0000000  -0.2000000), wk =   0.0320000
        k(   19) = (   0.2000000   0.2000000   0.0000000), wk =   0.0320000
        k(   20) = (   0.2000000   0.2000000   0.2000000), wk =   0.0320000
        k(   21) = (   0.2000000   0.2000000   0.4000000), wk =   0.0320000
        k(   22) = (   0.2000000   0.2000000  -0.4000000), wk =   0.0320000
        k(   23) = (   0.2000000   0.2000000  -0.2000000), wk =   0.0320000
        k(   24) = (   0.2000000   0.4000000   0.0000000), wk =   0.0320000
        k(   25) = (   0.2000000   0.4000000   0.2000000), wk =   0.0320000
        k(   26) = (   0.2000000   0.4000000   0.4000000), wk =   0.0320000
        k(   27) = (   0.2000000   0.4000000  -0.4000000), wk =   0.0320000
        k(   28) = (   0.2000000   0.4000000  -0.2000000), wk =   0.0320000
        k(   29) = (   0.2000000  -0.4000000   0.0000000), wk =   0.0320000
        k(   30) = (   0.2000000  -0.4000000   0.2000000), wk =   0.0320000
        k(   31) = (   0.2000000  -0.4000000   0.4000000), wk =   0.0320000
        k(   32) = (   0.2000000  -0.4000000  -0.4000000), wk =   0.0320000
        k(   33) = (   0.2000000  -0.4000000  -0.2000000), wk =   0.0320000
        k(   34) = (   0.2000000  -0.2000000   0.0000000), wk =   0.0320000
        k(   35) = (   0.2000000  -0.2000000   0.2000000), wk =   0.0320000
        k(   36) = (   0.2000000  -0.2000000   0.4000000), wk =   0.0320000
        k(   37) = (   0.2000000  -0.2000000  -0.4000000), wk =   0.0320000
        k(   38) = (   0.2000000  -0.2000000  -0.2000000), wk =   0.0320000
        k(   39) = (   0.4000000   0.0000000   0.0000000), wk =   0.0320000
        k(   40) = (   0.4000000   0.0000000   0.2000000), wk =   0.0320000
        k(   41) = (   0.4000000   0.0000000   0.4000000), wk =   0.0320000
        k(   42) = (   0.4000000   0.0000000  -0.4000000), wk =   0.0320000
        k(   43) = (   0.4000000   0.0000000  -0.2000000), wk =   0.0320000
        k(   44) = (   0.4000000   0.2000000   0.0000000), wk =   0.0320000
        k(   45) = (   0.4000000   0.2000000   0.2000000), wk =   0.0320000
        k(   46) = (   0.4000000   0.2000000   0.4000000), wk =   0.0320000
        k(   47) = (   0.4000000   0.2000000  -0.4000000), wk =   0.0320000
        k(   48) = (   0.4000000   0.2000000  -0.2000000), wk =   0.0320000
        k(   49) = (   0.4000000   0.4000000   0.0000000), wk =   0.0320000
        k(   50) = (   0.4000000   0.4000000   0.2000000), wk =   0.0320000
        k(   51) = (   0.4000000   0.4000000   0.4000000), wk =   0.0320000
        k(   52) = (   0.4000000   0.4000000  -0.4000000), wk =   0.0320000
        k(   53) = (   0.4000000   0.4000000  -0.2000000), wk =   0.0320000
        k(   54) = (   0.4000000  -0.4000000   0.0000000), wk =   0.0320000
        k(   55) = (   0.4000000  -0.4000000   0.2000000), wk =   0.0320000
        k(   56) = (   0.4000000  -0.4000000   0.4000000), wk =   0.0320000
        k(   57) = (   0.4000000  -0.4000000  -0.4000000), wk =   0.0320000
        k(   58) = (   0.4000000  -0.4000000  -0.2000000), wk =   0.0320000
        k(   59) = (   0.4000000  -0.2000000   0.0000000), wk =   0.0320000
        k(   60) = (   0.4000000  -0.2000000   0.2000000), wk =   0.0320000
        k(   61) = (   0.4000000  -0.2000000   0.4000000), wk =   0.0320000
        k(   62) = (   0.4000000  -0.2000000  -0.4000000), wk =   0.0320000
        k(   63) = (   0.4000000  -0.2000000  -0.2000000), wk =   0.0320000

     Dense  grid:    68051 G-vectors     FFT dimensions: (  54,  54,  54)

     Estimated max dynamical RAM per process >      29.22 MB

     Estimated total dynamical RAM >     467.47 MB

     Initial potential from superposition of free atoms

     starting charge   63.99678, renormalised to   64.00000
     Starting wfcs are   36 randomized atomic wfcs +    2 random wfcs

     total cpu time spent up to now is        2.2 secs

     Self-consistent Calculation

     iteration #  1     ecut=   100.00 Ry     beta= 0.50
     Davidson diagonalization with overlap
     ethr =  1.00E-02,  avg # of iterations =  4.0

     total cpu time spent up to now is       11.7 secs

     total energy              =    -608.03223956 Ry
     estimated scf accuracy    <       1.57336964 Ry

     iteration #  2     ecut=   100.00 Ry     beta= 0.50
     Davidson diagonalization with overlap
     ethr =  2.46E-03,  avg # of iterations =  2.2

     total cpu time spent up to now is       17.6 secs

     total energy              =    -608.48016584 Ry
     estimated scf accuracy    <       0.24132896 Ry

     iteration #  3     ecut=   100.00 Ry     beta= 0.50
     Davidson diagonalization with overlap
     ethr =  3.77E-04,  avg # of iterations =  2.2

     total cpu time spent up to now is       22.6 secs

     total energy              =    -608.51529458 Ry
     estimated scf accuracy    <       0.01286812 Ry

     iteration #  4     ecut=   100.00 Ry     beta= 0.50
     Davidson diagonalization with overlap
     ethr =  2.01E-05,  avg # of iterations =  4.1

     total cpu time spent up to now is       28.3 secs

     total energy              =    -608.51591804 Ry
     estimated scf accuracy    <       0.00171225 Ry

     iteration #  5     ecut=   100.00 Ry     beta= 0.50
     Davidson diagonalization with overlap
     ethr =  2.68E-06,  avg # of iterations =  3.9

     total cpu time spent up to now is       33.0 secs

     total energy              =    -608.51631878 Ry
     estimated scf accuracy    <       0.00005206 Ry

     iteration #  6     ecut=   100.00 Ry     beta= 0.50
     Davidson diagonalization with overlap
     ethr =  8.13E-08,  avg # of iterations =  2.1

     total cpu time spent up to now is       37.0 secs

     total energy              =    -608.51633117 Ry
     estimated scf accuracy    <       0.00000150 Ry

     iteration #  7     ecut=   100.00 Ry     beta= 0.50
     Davidson diagonalization with overlap
     ethr =  2.35E-09,  avg # of iterations =  2.9

     total cpu time spent up to now is       41.1 secs

     total energy              =    -608.51633010 Ry
     estimated scf accuracy    <       0.00000321 Ry

     iteration #  8     ecut=   100.00 Ry     beta= 0.50
     Davidson diagonalization with overlap
     ethr =  2.35E-09,  avg # of iterations =  2.5

     total cpu time spent up to now is       45.7 secs

     End of self-consistent calculation

          k = 0.0000 0.0000 0.0000 (  8409 PWs)   bands (ev):

   -64.2904 -64.2789 -64.2789 -64.2789 -31.1156 -31.1156 -31.1156 -31.0716
   -31.0716 -31.0716 -31.0716 -31.0716 -31.0716 -31.0431 -31.0431 -31.0431
    -9.1286  -7.5854  -7.5854  -7.5853   4.0215   4.0215   4.0215   6.7284
     6.7284   6.7284   6.7284   6.7284   6.7285   8.0632   8.0632   8.0632
    12.8379  17.2907  17.2907  18.0836  18.0836  18.0836

          k = 0.0000 0.0000 0.2000 (  8501 PWs)   bands (ev):

   -64.2893 -64.2800 -64.2789 -64.2789 -31.1114 -31.1114 -31.1095 -31.0758
   -31.0758 -31.0723 -31.0723 -31.0689 -31.0689 -31.0508 -31.0458 -31.0458
    -8.9846  -7.7348  -7.5636  -7.5636   4.2128   4.2128   4.2479   6.3644
     6.3644   6.5784   6.5784   6.8368   6.8368   7.3531   7.9122   7.9122
    13.6615  17.6208  17.8675  17.8675  17.9372  18.6672

          k = 0.0000 0.0000 0.4000 (  8542 PWs)   bands (ev):

   -64.2864 -64.2829 -64.2789 -64.2789 -31.1003 -31.1003 -31.0927 -31.0868
   -31.0868 -31.0735 -31.0735 -31.0703 -31.0617 -31.0617 -31.0529 -31.0529
    -8.6035  -8.1253  -7.5280  -7.5280   4.7601   4.7601   4.9403   5.5608
     5.5608   6.0583   6.3469   6.3469   7.1366   7.1366   7.5447   7.5447
    15.3077  16.9480  18.6064  19.1278  19.1278  19.9457

          k = 0.0000 0.2000 0.0000 (  8501 PWs)   bands (ev):

   -64.2893 -64.2800 -64.2789 -64.2789 -31.1114 -31.1114 -31.1095 -31.0758
   -31.0758 -31.0723 -31.0723 -31.0689 -31.0689 -31.0508 -31.0458 -31.0458
    -8.9846  -7.7348  -7.5636  -7.5635   4.2128   4.2128   4.2479   6.3644
     6.3644   6.5783   6.5784   6.8368   6.8368   7.3531   7.9122   7.9122
    13.6615  17.6208  17.8675  17.8675  17.9372  18.6672

          k = 0.0000 0.2000 0.2000 (  8512 PWs)   bands (ev):

   -64.2883 -64.2799 -64.2799 -64.2790 -31.1080 -31.1080 -31.1073 -31.0847
   -31.0729 -31.0729 -31.0682 -31.0682 -31.0670 -31.0618 -31.0486 -31.0439
    -8.8483  -7.6962  -7.6962  -7.5568   4.3404   4.3404   4.4003   5.7445
     6.4888   6.4888   6.7057   6.7559   6.7559   6.8624   7.7349   7.9490
    14.2550  18.0103  18.1463  18.3983  18.3983  19.3507

          k = 0.0000 0.2000 0.4000 (  8538 PWs)   bands (ev):

   -64.2857 -64.2825 -64.2796 -64.2793 -31.1033 -31.0972 -31.0966 -31.0953
   -31.0835 -31.0800 -31.0663 -31.0654 -31.0651 -31.0584 -31.0561 -31.0487
    -8.4905  -8.0489  -7.6163  -7.5624   4.6046   4.8051   4.9353   5.0638
     5.6579   5.7140   6.6971   6.8173   6.8340   7.1835   7.3062   7.6583
    15.6414  17.2265  18.7471  18.9614  19.1571  19.2684

          k = 0.0000 0.2000-0.4000 (  8538 PWs)   bands (ev):

   -64.2857 -64.2825 -64.2796 -64.2793 -31.1033 -31.0972 -31.0966 -31.0953
   -31.0835 -31.0800 -31.0663 -31.0654 -31.0651 -31.0584 -31.0561 -31.0487
    -8.4905  -8.0489  -7.6163  -7.5624   4.6046   4.8051   4.9353   5.0638
     5.6579   5.7140   6.6971   6.8173   6.8340   7.1835   7.3062   7.6583
    15.6414  17.2265  18.7471  18.9615  19.1571  19.2684

          k = 0.0000 0.2000-0.2000 (  8512 PWs)   bands (ev):

   -64.2883 -64.2799 -64.2799 -64.2790 -31.1080 -31.1080 -31.1073 -31.0847
   -31.0729 -31.0729 -31.0682 -31.0682 -31.0670 -31.0618 -31.0486 -31.0439
    -8.8483  -7.6962  -7.6962  -7.5568   4.3404   4.3404   4.4003   5.7445
     6.4888   6.4888   6.7057   6.7559   6.7559   6.8624   7.7349   7.9490
    14.2550  18.0103  18.1463  18.3983  18.3983  19.3508

          k = 0.0000 0.4000 0.0000 (  8542 PWs)   bands (ev):

   -64.2864 -64.2829 -64.2789 -64.2789 -31.1003 -31.1003 -31.0927 -31.0868
   -31.0868 -31.0735 -31.0735 -31.0703 -31.0617 -31.0617 -31.0529 -31.0529
    -8.6035  -8.1253  -7.5281  -7.5280   4.7601   4.7601   4.9403   5.5608
     5.5608   6.0583   6.3468   6.3469   7.1366   7.1366   7.5447   7.5447
    15.3077  16.9480  18.6064  19.1278  19.1278  19.9457

          k = 0.0000 0.4000 0.2000 (  8538 PWs)   bands (ev):

   -64.2857 -64.2825 -64.2796 -64.2793 -31.1033 -31.0972 -31.0966 -31.0953
   -31.0835 -31.0800 -31.0663 -31.0654 -31.0651 -31.0584 -31.0561 -31.0487
    -8.4905  -8.0489  -7.6163  -7.5624   4.6046   4.8051   4.9353   5.0638
     5.6579   5.7140   6.6971   6.8173   6.8340   7.1835   7.3062   7.6583
    15.6414  17.2265  18.7471  19.1571  19.2684  20.2428

          k = 0.0000 0.4000 0.4000 (  8510 PWs)   bands (ev):

   -64.2838 -64.2815 -64.2815 -64.2803 -31.1033 -31.1033 -31.1031 -31.0945
   -31.0869 -31.0750 -31.0750 -31.0645 -31.0568 -31.0549 -31.0549 -31.0480
    -8.2019  -7.8654  -7.8654  -7.6776   4.5832   4.5832   4.6169   4.9879
     5.4318   6.1434   6.1434   6.7441   7.2117   7.2690   7.2690   7.6309
    16.5379  17.7945  17.7945  18.2789  19.6317  20.0774

          k = 0.0000 0.4000-0.4000 (  8510 PWs)   bands (ev):

   -64.2838 -64.2815 -64.2815 -64.2803 -31.1033 -31.1033 -31.1031 -31.0945
   -31.0869 -31.0750 -31.0750 -31.0645 -31.0568 -31.0549 -31.0549 -31.0480
    -8.2019  -7.8654  -7.8654  -7.6776   4.5832   4.5832   4.6169   4.9879
     5.4318   6.1434   6.1434   6.7441   7.2117   7.2690   7.2690   7.6309
    16.5379  17.7945  17.7945  18.2789  19.6317  20.0773

          k = 0.0000 0.4000-0.2000 (  8538 PWs)   bands (ev):

   -64.2857 -64.2825 -64.2796 -64.2793 -31.1033 -31.0972 -31.0966 -31.0953
   -31.0835 -31.0800 -31.0663 -31.0654 -31.0651 -31.0584 -31.0561 -31.0487
    -8.4905  -8.0489  -7.6163  -7.5624   4.6046   4.8051   4.9353   5.0638
     5.6579   5.7140   6.6971   6.8173   6.8340   7.1835   7.3062   7.6583
    15.6414  17.2265  18.7471  18.9615  19.1571  19.2684

          k = 0.2000 0.0000 0.0000 (  8501 PWs)   bands (ev):

   -64.2893 -64.2800 -64.2789 -64.2789 -31.1114 -31.1114 -31.1095 -31.0758
   -31.0758 -31.0723 -31.0723 -31.0689 -31.0689 -31.0508 -31.0458 -31.0458
    -8.9846  -7.7348  -7.5636  -7.5636   4.2128   4.2128   4.2479   6.3644
     6.3644   6.5784   6.5784   6.8368   6.8368   7.3531   7.9122   7.9122
    13.6615  17.6208  17.8675  17.8675  17.9372  18.6672

          k = 0.2000 0.0000 0.2000 (  8512 PWs)   bands (ev):

   -64.2883 -64.2799 -64.2799 -64.2790 -31.1080 -31.1080 -31.1073 -31.0847
   -31.0729 -31.0729 -31.0682 -31.0682 -31.0670 -31.0618 -31.0486 -31.0439
    -8.8483  -7.6962  -7.6961  -7.5568   4.3404   4.3404   4.4003   5.7445
     6.4888   6.4889   6.7057   6.7559   6.7559   6.8624   7.7349   7.9490
    14.2550  18.0103  18.1462  18.1463  18.3983  18.3983

          k = 0.2000 0.0000 0.4000 (  8538 PWs)   bands (ev):

   -64.2857 -64.2825 -64.2796 -64.2793 -31.1033 -31.0972 -31.0966 -31.0953
   -31.0835 -31.0800 -31.0663 -31.0654 -31.0651 -31.0584 -31.0561 -31.0487
    -8.4905  -8.0489  -7.6163  -7.5624   4.6046   4.8051   4.9353   5.0638
     5.6579   5.7140   6.6971   6.8173   6.8340   7.1835   7.3062   7.6583
    15.6414  17.2265  18.7471  19.1571  19.2684  20.2432

          k = 0.2000 0.0000-0.4000 (  8538 PWs)   bands (ev):

   -64.2857 -64.2825 -64.2796 -64.2793 -31.1033 -31.0972 -31.0966 -31.0953
   -31.0835 -31.0800 -31.0663 -31.0654 -31.0651 -31.0584 -31.0561 -31.0487
    -8.4905  -8.0489  -7.6163  -7.5624   4.6046   4.8051   4.9353   5.0638
     5.6579   5.7140   6.6971   6.8173   6.8340   7.1835   7.3062   7.6583
    15.6414  17.2265  18.7471  18.9614  19.1571  19.2684

          k = 0.2000 0.0000-0.2000 (  8512 PWs)   bands (ev):

   -64.2883 -64.2799 -64.2799 -64.2790 -31.1080 -31.1080 -31.1073 -31.0847
   -31.0729 -31.0729 -31.0682 -31.0682 -31.0670 -31.0618 -31.0486 -31.0439
    -8.8483  -7.6962  -7.6961  -7.5568   4.3404   4.3404   4.4003   5.7445
     6.4888   6.4889   6.7057   6.7559   6.7559   6.8624   7.7349   7.9490
    14.2550  18.0103  18.1462  18.1463  18.3983  18.3983

          k = 0.2000 0.2000 0.0000 (  8512 PWs)   bands (ev):

   -64.2883 -64.2799 -64.2799 -64.2790 -31.1080 -31.1080 -31.1073 -31.0847
   -31.0729 -31.0729 -31.0682 -31.0682 -31.0670 -31.0618 -31.0486 -31.0439
    -8.8483  -7.6962  -7.6961  -7.5568   4.3404   4.3404   4.4003   5.7445
     6.4888   6.4889   6.7057   6.7559   6.7559   6.8624   7.7349   7.9490
    14.2550  18.0103  18.1463  18.1463  18.3983  18.3983

          k = 0.2000 0.2000 0.2000 (  8517 PWs)   bands (ev):

   -64.2874 -64.2799 -64.2799 -64.2799 -31.1085 -31.1085 -31.1085 -31.0765
   -31.0764 -31.0764 -31.0728 -31.0648 -31.0648 -31.0648 -31.0461 -31.0461
    -8.7203  -7.6719  -7.6719  -7.6718   4.3531   4.3531   4.3531   6.1068
     6.1091   6.1092   6.1092   6.9532   6.9533   6.9533   7.8301   7.8301
    14.6515  17.9659  17.9659  17.9659  19.2158  19.2158

          k = 0.2000 0.2000 0.4000 (  8510 PWs)   bands (ev):

   -64.2851 -64.2822 -64.2799 -64.2799 -31.1096 -31.1096 -31.1041 -31.0906
   -31.0789 -31.0789 -31.0623 -31.0623 -31.0616 -31.0590 -31.0518 -31.0499
    -8.3874  -7.9848  -7.6322  -7.6321   4.3411   4.3411   4.5446   5.1844
     5.8452   5.8453   6.8372   6.9496   6.9497   7.2024   7.5215   7.5360
    15.7320  17.1039  18.2408  18.2408  19.4441  20.0339

          k = 0.2000 0.2000-0.4000 (  8510 PWs)   bands (ev):

   -64.2851 -64.2822 -64.2799 -64.2799 -31.1096 -31.1096 -31.1041 -31.0906
   -31.0789 -31.0789 -31.0623 -31.0623 -31.0616 -31.0590 -31.0518 -31.0499
    -8.3874  -7.9848  -7.6322  -7.6321   4.3411   4.3411   4.5446   5.1844
     5.8452   5.8453   6.8372   6.9496   6.9497   7.2024   7.5215   7.5360
    15.7320  17.1039  18.2408  18.2408  19.4441  20.0339

          k = 0.2000 0.2000-0.2000 (  8517 PWs)   bands (ev):

   -64.2874 -64.2799 -64.2799 -64.2799 -31.1085 -31.1085 -31.1085 -31.0765
   -31.0764 -31.0764 -31.0728 -31.0648 -31.0648 -31.0648 -31.0461 -31.0461
    -8.7203  -7.6719  -7.6719  -7.6718   4.3531   4.3531   4.3531   6.1068
     6.1091   6.1092   6.1092   6.9532   6.9533   6.9533   7.8301   7.8301
    14.6515  17.9659  17.9659  17.9659  19.2158  19.2158

          k = 0.2000 0.4000 0.0000 (  8538 PWs)   bands (ev):

   -64.2857 -64.2825 -64.2796 -64.2793 -31.1033 -31.0972 -31.0966 -31.0953
   -31.0835 -31.0800 -31.0663 -31.0654 -31.0651 -31.0584 -31.0561 -31.0487
    -8.4905  -8.0489  -7.6163  -7.5624   4.6046   4.8051   4.9353   5.0638
     5.6579   5.7140   6.6971   6.8173   6.8340   7.1835   7.3062   7.6583
    15.6414  17.2265  18.7471  19.1571  19.2684  20.2428

          k = 0.2000 0.4000 0.2000 (  8510 PWs)   bands (ev):

   -64.2851 -64.2822 -64.2799 -64.2799 -31.1096 -31.1096 -31.1041 -31.0906
   -31.0789 -31.0789 -31.0623 -31.0623 -31.0616 -31.0590 -31.0518 -31.0499
    -8.3874  -7.9848  -7.6322  -7.6321   4.3411   4.3411   4.5446   5.1844
     5.8452   5.8453   6.8372   6.9496   6.9497   7.2024   7.5215   7.5360
    15.7320  17.1039  18.2408  18.2408  19.4441  20.0339

          k = 0.2000 0.4000 0.4000 (  8499 PWs)   bands (ev):

   -64.2835 -64.2815 -64.2815 -64.2806 -31.1157 -31.1135 -31.1135 -31.1059
   -31.0720 -31.0655 -31.0655 -31.0567 -31.0560 -31.0548 -31.0548 -31.0488
    -8.1287  -7.8373  -7.8373  -7.7009   4.0448   4.1381   4.1381   4.4786
     6.1921   6.6032   6.6032   7.1653   7.2498   7.2895   7.2895   7.5890
    16.2058  17.1556  17.1556  17.5297  20.1205  20.3550

          k = 0.2000 0.4000-0.4000 (  8499 PWs)   bands (ev):

   -64.2835 -64.2815 -64.2815 -64.2806 -31.1157 -31.1135 -31.1135 -31.1059
   -31.0720 -31.0655 -31.0655 -31.0567 -31.0560 -31.0548 -31.0548 -31.0488
    -8.1287  -7.8373  -7.8373  -7.7009   4.0448   4.1381   4.1381   4.4786
     6.1921   6.6032   6.6032   7.1653   7.2498   7.2895   7.2895   7.5890
    16.2058  17.1556  17.1556  17.5297  20.1207  20.3554

          k = 0.2000 0.4000-0.2000 (  8510 PWs)   bands (ev):

   -64.2851 -64.2822 -64.2799 -64.2799 -31.1096 -31.1096 -31.1041 -31.0906
   -31.0789 -31.0789 -31.0623 -31.0623 -31.0616 -31.0590 -31.0518 -31.0499
    -8.3874  -7.9848  -7.6322  -7.6321   4.3411   4.3411   4.5446   5.1844
     5.8452   5.8453   6.8372   6.9496   6.9497   7.2024   7.5215   7.5360
    15.7320  17.1039  18.2408  18.2408  19.4441  20.0339

          k = 0.2000-0.4000 0.0000 (  8538 PWs)   bands (ev):

   -64.2857 -64.2825 -64.2796 -64.2793 -31.1033 -31.0972 -31.0966 -31.0953
   -31.0835 -31.0800 -31.0663 -31.0654 -31.0651 -31.0584 -31.0561 -31.0487
    -8.4905  -8.0489  -7.6163  -7.5624   4.6046   4.8051   4.9353   5.0638
     5.6579   5.7140   6.6971   6.8173   6.8340   7.1835   7.3062   7.6583
    15.6414  17.2265  18.7471  18.9615  19.1571  19.2684

          k = 0.2000-0.4000 0.2000 (  8510 PWs)   bands (ev):

   -64.2851 -64.2822 -64.2799 -64.2799 -31.1096 -31.1096 -31.1041 -31.0906
   -31.0789 -31.0789 -31.0623 -31.0623 -31.0616 -31.0590 -31.0518 -31.0499
    -8.3874  -7.9848  -7.6322  -7.6321   4.3411   4.3411   4.5446   5.1844
     5.8452   5.8453   6.8372   6.9496   6.9497   7.2024   7.5215   7.5360
    15.7320  17.1039  18.2408  18.2408  19.4441  20.0339

          k = 0.2000-0.4000 0.4000 (  8499 PWs)   bands (ev):

   -64.2835 -64.2815 -64.2815 -64.2806 -31.1157 -31.1135 -31.1135 -31.1059
   -31.0720 -31.0655 -31.0655 -31.0567 -31.0560 -31.0548 -31.0548 -31.0488
    -8.1287  -7.8373  -7.8373  -7.7009   4.0448   4.1381   4.1381   4.4786
     6.1921   6.6032   6.6032   7.1653   7.2498   7.2895   7.2895   7.5890
    16.2058  17.1556  17.1556  17.5297  20.1206  20.3550

          k = 0.2000-0.4000-0.4000 (  8499 PWs)   bands (ev):

   -64.2835 -64.2815 -64.2815 -64.2806 -31.1157 -31.1135 -31.1135 -31.1059
   -31.0720 -31.0655 -31.0655 -31.0567 -31.0560 -31.0548 -31.0548 -31.0488
    -8.1287  -7.8373  -7.8373  -7.7009   4.0448   4.1381   4.1381   4.4786
     6.1921   6.6032   6.6032   7.1653   7.2498   7.2895   7.2895   7.5890
    16.2058  17.1556  17.1556  17.5297  20.1206  20.3552

          k = 0.2000-0.4000-0.2000 (  8510 PWs)   bands (ev):

   -64.2851 -64.2822 -64.2799 -64.2799 -31.1096 -31.1096 -31.1041 -31.0906
   -31.0789 -31.0789 -31.0623 -31.0623 -31.0616 -31.0590 -31.0518 -31.0499
    -8.3874  -7.9848  -7.6322  -7.6321   4.3411   4.3411   4.5446   5.1844
     5.8452   5.8453   6.8372   6.9496   6.9497   7.2024   7.5215   7.5360
    15.7320  17.1039  18.2408  18.2408  19.4441  20.0339

          k = 0.2000-0.2000 0.0000 (  8512 PWs)   bands (ev):

   -64.2883 -64.2799 -64.2799 -64.2790 -31.1080 -31.1080 -31.1073 -31.0847
   -31.0729 -31.0729 -31.0682 -31.0682 -31.0670 -31.0618 -31.0486 -31.0439
    -8.8483  -7.6962  -7.6961  -7.5568   4.3404   4.3404   4.4003   5.7445
     6.4888   6.4889   6.7057   6.7559   6.7559   6.8624   7.7349   7.9490
    14.2550  18.0103  18.1463  18.1463  18.3983  18.3983

          k = 0.2000-0.2000 0.2000 (  8517 PWs)   bands (ev):

   -64.2874 -64.2799 -64.2799 -64.2799 -31.1085 -31.1085 -31.1085 -31.0765
   -31.0764 -31.0764 -31.0728 -31.0648 -31.0648 -31.0648 -31.0461 -31.0461
    -8.7203  -7.6719  -7.6719  -7.6718   4.3531   4.3531   4.3531   6.1068
     6.1091   6.1092   6.1092   6.9532   6.9533   6.9533   7.8301   7.8301
    14.6515  17.9659  17.9659  17.9659  19.2158  19.2158

          k = 0.2000-0.2000 0.4000 (  8510 PWs)   bands (ev):

   -64.2851 -64.2822 -64.2799 -64.2799 -31.1096 -31.1096 -31.1041 -31.0906
   -31.0789 -31.0789 -31.0623 -31.0623 -31.0616 -31.0590 -31.0518 -31.0499
    -8.3874  -7.9848  -7.6322  -7.6321   4.3411   4.3411   4.5446   5.1844
     5.8452   5.8453   6.8372   6.9496   6.9497   7.2025   7.5215   7.5360
    15.7320  17.1039  18.2408  18.2408  19.4441  20.0339

          k = 0.2000-0.2000-0.4000 (  8510 PWs)   bands (ev):

   -64.2851 -64.2822 -64.2799 -64.2799 -31.1096 -31.1096 -31.1041 -31.0906
   -31.0789 -31.0789 -31.0623 -31.0623 -31.0616 -31.0590 -31.0518 -31.0499
    -8.3874  -7.9848  -7.6322  -7.6321   4.3411   4.3411   4.5446   5.1844
     5.8452   5.8453   6.8372   6.9496   6.9497   7.2025   7.5215   7.5360
    15.7320  17.1039  18.2408  18.2408  19.4441  20.0339

          k = 0.2000-0.2000-0.2000 (  8517 PWs)   bands (ev):

   -64.2874 -64.2799 -64.2799 -64.2799 -31.1085 -31.1085 -31.1085 -31.0765
   -31.0764 -31.0764 -31.0728 -31.0648 -31.0648 -31.0648 -31.0461 -31.0461
    -8.7203  -7.6719  -7.6719  -7.6718   4.3531   4.3531   4.3531   6.1068
     6.1091   6.1092   6.1092   6.9532   6.9533   6.9533   7.8301   7.8301
    14.6515  17.9659  17.9659  17.9659  19.2158  19.2158

          k = 0.4000 0.0000 0.0000 (  8542 PWs)   bands (ev):

   -64.2864 -64.2829 -64.2789 -64.2789 -31.1003 -31.1003 -31.0927 -31.0868
   -31.0868 -31.0735 -31.0735 -31.0703 -31.0617 -31.0617 -31.0529 -31.0529
    -8.6035  -8.1253  -7.5280  -7.5280   4.7601   4.7601   4.9403   5.5608
     5.5608   6.0583   6.3469   6.3469   7.1366   7.1366   7.5447   7.5447
    15.3077  16.9480  18.6064  19.1278  19.9456  19.9457

          k = 0.4000 0.0000 0.2000 (  8538 PWs)   bands (ev):

   -64.2857 -64.2825 -64.2796 -64.2793 -31.1033 -31.0972 -31.0966 -31.0953
   -31.0835 -31.0800 -31.0663 -31.0654 -31.0651 -31.0584 -31.0561 -31.0487
    -8.4905  -8.0489  -7.6163  -7.5624   4.6046   4.8051   4.9353   5.0638
     5.6579   5.7140   6.6971   6.8173   6.8340   7.1835   7.3062   7.6583
    15.6414  17.2265  18.7471  18.9614  19.1571  19.2684

          k = 0.4000 0.0000 0.4000 (  8510 PWs)   bands (ev):

   -64.2838 -64.2815 -64.2815 -64.2803 -31.1033 -31.1032 -31.1031 -31.0945
   -31.0869 -31.0750 -31.0750 -31.0645 -31.0568 -31.0549 -31.0549 -31.0480
    -8.2019  -7.8655  -7.8653  -7.6776   4.5832   4.5833   4.6169   4.9879
     5.4318   6.1433   6.1434   6.7441   7.2117   7.2689   7.2690   7.6309
    16.5379  17.7945  17.7945  18.2789  19.6316  19.6318

          k = 0.4000 0.0000-0.4000 (  8510 PWs)   bands (ev):

   -64.2838 -64.2815 -64.2815 -64.2803 -31.1033 -31.1032 -31.1031 -31.0945
   -31.0869 -31.0750 -31.0750 -31.0645 -31.0568 -31.0549 -31.0549 -31.0480
    -8.2019  -7.8655  -7.8653  -7.6776   4.5832   4.5833   4.6169   4.9879
     5.4318   6.1433   6.1434   6.7441   7.2117   7.2689   7.2690   7.6309
    16.5379  17.7945  17.7945  18.2789  19.6318  20.0768

          k = 0.4000 0.0000-0.2000 (  8538 PWs)   bands (ev):

   -64.2857 -64.2825 -64.2796 -64.2793 -31.1033 -31.0972 -31.0966 -31.0953
   -31.0835 -31.0800 -31.0663 -31.0654 -31.0651 -31.0584 -31.0561 -31.0487
    -8.4905  -8.0489  -7.6163  -7.5624   4.6046   4.8051   4.9353   5.0638
     5.6579   5.7140   6.6971   6.8173   6.8340   7.1835   7.3062   7.6583
    15.6414  17.2265  18.7471  18.9615  19.1571  19.2684

          k = 0.4000 0.2000 0.0000 (  8538 PWs)   bands (ev):

   -64.2857 -64.2825 -64.2796 -64.2793 -31.1033 -31.0972 -31.0966 -31.0953
   -31.0835 -31.0800 -31.0663 -31.0654 -31.0651 -31.0584 -31.0561 -31.0487
    -8.4905  -8.0489  -7.6163  -7.5624   4.6046   4.8051   4.9353   5.0638
     5.6579   5.7140   6.6971   6.8173   6.8340   7.1835   7.3062   7.6583
    15.6414  17.2265  18.7471  19.1572  19.2683  20.2428

          k = 0.4000 0.2000 0.2000 (  8510 PWs)   bands (ev):

   -64.2851 -64.2822 -64.2799 -64.2799 -31.1096 -31.1096 -31.1041 -31.0906
   -31.0789 -31.0789 -31.0623 -31.0623 -31.0616 -31.0590 -31.0518 -31.0499
    -8.3874  -7.9848  -7.6321  -7.6321   4.3411   4.3411   4.5446   5.1844
     5.8453   5.8453   6.8372   6.9496   6.9496   7.2024   7.5215   7.5360
    15.7320  17.1039  18.2408  18.2408  19.4441  20.0339

          k = 0.4000 0.2000 0.4000 (  8499 PWs)   bands (ev):

   -64.2835 -64.2815 -64.2815 -64.2806 -31.1157 -31.1135 -31.1135 -31.1059
   -31.0720 -31.0655 -31.0654 -31.0567 -31.0560 -31.0548 -31.0548 -31.0488
    -8.1287  -7.8374  -7.8373  -7.7009   4.0448   4.1381   4.1381   4.4786
     6.1921   6.6031   6.6032   7.1653   7.2498   7.2895   7.2896   7.5890
    16.2058  17.1556  17.1556  17.5297  20.1206  20.3539

          k = 0.4000 0.2000-0.4000 (  8499 PWs)   bands (ev):

   -64.2835 -64.2815 -64.2815 -64.2806 -31.1157 -31.1135 -31.1135 -31.1059
   -31.0720 -31.0655 -31.0654 -31.0567 -31.0560 -31.0548 -31.0548 -31.0488
    -8.1287  -7.8374  -7.8373  -7.7009   4.0448   4.1381   4.1381   4.4786
     6.1921   6.6031   6.6032   7.1653   7.2498   7.2895   7.2896   7.5890
    16.2058  17.1556  17.1556  17.5297  20.1206  20.3554

          k = 0.4000 0.2000-0.2000 (  8510 PWs)   bands (ev):

   -64.2851 -64.2822 -64.2799 -64.2799 -31.1096 -31.1096 -31.1041 -31.0906
   -31.0789 -31.0789 -31.0623 -31.0623 -31.0616 -31.0590 -31.0518 -31.0499
    -8.3874  -7.9848  -7.6321  -7.6321   4.3411   4.3411   4.5446   5.1844
     5.8453   5.8453   6.8372   6.9496   6.9496   7.2024   7.5215   7.5360
    15.7320  17.1039  18.2408  18.2408  19.4441  20.0339

          k = 0.4000 0.4000 0.0000 (  8510 PWs)   bands (ev):

   -64.2838 -64.2815 -64.2815 -64.2803 -31.1033 -31.1032 -31.1031 -31.0945
   -31.0869 -31.0750 -31.0750 -31.0645 -31.0568 -31.0549 -31.0549 -31.0480
    -8.2019  -7.8654  -7.8654  -7.6776   4.5832   4.5833   4.6169   4.9879
     5.4318   6.1434   6.1434   6.7441   7.2117   7.2690   7.2690   7.6309
    16.5379  17.7945  17.7945  18.2789  19.6317  20.0773

          k = 0.4000 0.4000 0.2000 (  8499 PWs)   bands (ev):

   -64.2835 -64.2815 -64.2815 -64.2806 -31.1157 -31.1135 -31.1135 -31.1059
   -31.0720 -31.0655 -31.0655 -31.0567 -31.0560 -31.0548 -31.0548 -31.0488
    -8.1287  -7.8374  -7.8373  -7.7009   4.0448   4.1381   4.1381   4.4786
     6.1921   6.6032   6.6032   7.1653   7.2498   7.2895   7.2895   7.5890
    16.2058  17.1556  17.1556  17.5297  20.1207  20.3553

          k = 0.4000 0.4000 0.4000 (  8465 PWs)   bands (ev):

   -64.2826 -64.2815 -64.2815 -64.2815 -31.1246 -31.1246 -31.1246 -31.1205
   -31.0565 -31.0565 -31.0565 -31.0537 -31.0537 -31.0537 -31.0510 -31.0510
    -7.9569  -7.7913  -7.7913  -7.7912   3.6472   3.6473   3.6473   3.8283
     7.0930   7.0931   7.0931   7.3514   7.3514   7.3515   7.4810   7.4810
    15.9512  16.4583  16.4583  16.4583  20.5584  20.5585

          k = 0.4000 0.4000-0.4000 (  8465 PWs)   bands (ev):

   -64.2826 -64.2815 -64.2815 -64.2815 -31.1246 -31.1246 -31.1246 -31.1205
   -31.0565 -31.0565 -31.0565 -31.0537 -31.0537 -31.0537 -31.0510 -31.0510
    -7.9569  -7.7913  -7.7913  -7.7912   3.6472   3.6473   3.6473   3.8283
     7.0930   7.0931   7.0931   7.3514   7.3514   7.3515   7.4810   7.4810
    15.9512  16.4583  16.4583  16.4583  20.5584  20.5585

          k = 0.4000 0.4000-0.2000 (  8499 PWs)   bands (ev):

   -64.2835 -64.2815 -64.2815 -64.2806 -31.1157 -31.1135 -31.1135 -31.1059
   -31.0720 -31.0655 -31.0655 -31.0567 -31.0560 -31.0548 -31.0548 -31.0488
    -8.1287  -7.8374  -7.8373  -7.7009   4.0448   4.1381   4.1381   4.4786
     6.1921   6.6032   6.6032   7.1653   7.2498   7.2895   7.2895   7.5890
    16.2058  17.1556  17.1556  17.5297  20.1206  20.3554

          k = 0.4000-0.4000 0.0000 (  8510 PWs)   bands (ev):

   -64.2838 -64.2815 -64.2815 -64.2803 -31.1033 -31.1032 -31.1031 -31.0945
   -31.0869 -31.0750 -31.0750 -31.0645 -31.0568 -31.0549 -31.0549 -31.0480
    -8.2019  -7.8654  -7.8654  -7.6776   4.5832   4.5833   4.6169   4.9879
     5.4318   6.1434   6.1434   6.7441   7.2117   7.2690   7.2690   7.6309
    16.5379  17.7945  17.7945  18.2789  19.6319  20.0774

          k = 0.4000-0.4000 0.2000 (  8499 PWs)   bands (ev):

   -64.2835 -64.2815 -64.2815 -64.2806 -31.1157 -31.1135 -31.1135 -31.1059
   -31.0720 -31.0655 -31.0655 -31.0567 -31.0560 -31.0548 -31.0548 -31.0488
    -8.1287  -7.8374  -7.8373  -7.7009   4.0448   4.1381   4.1381   4.4786
     6.1921   6.6032   6.6032   7.1653   7.2498   7.2895   7.2895   7.5890
    16.2058  17.1556  17.1556  17.5297  20.1209  20.3554

          k = 0.4000-0.4000 0.4000 (  8465 PWs)   bands (ev):

   -64.2826 -64.2815 -64.2815 -64.2815 -31.1246 -31.1246 -31.1246 -31.1205
   -31.0565 -31.0565 -31.0565 -31.0537 -31.0537 -31.0537 -31.0510 -31.0510
    -7.9569  -7.7913  -7.7913  -7.7912   3.6472   3.6473   3.6473   3.8283
     7.0930   7.0931   7.0931   7.3514   7.3514   7.3515   7.4810   7.4810
    15.9512  16.4583  16.4583  16.4583  20.5584  20.5585

          k = 0.4000-0.4000-0.4000 (  8465 PWs)   bands (ev):

   -64.2826 -64.2815 -64.2815 -64.2815 -31.1246 -31.1246 -31.1246 -31.1205
   -31.0565 -31.0565 -31.0565 -31.0537 -31.0537 -31.0537 -31.0510 -31.0510
    -7.9569  -7.7913  -7.7913  -7.7912   3.6472   3.6473   3.6473   3.8283
     7.0930   7.0931   7.0931   7.3514   7.3514   7.3515   7.4810   7.4810
    15.9512  16.4583  16.4583  16.4583  20.5584  20.5585

          k = 0.4000-0.4000-0.2000 (  8499 PWs)   bands (ev):

   -64.2835 -64.2815 -64.2815 -64.2806 -31.1157 -31.1135 -31.1135 -31.1059
   -31.0720 -31.0655 -31.0655 -31.0567 -31.0560 -31.0548 -31.0548 -31.0488
    -8.1287  -7.8374  -7.8373  -7.7009   4.0448   4.1381   4.1381   4.4786
     6.1921   6.6032   6.6032   7.1653   7.2498   7.2895   7.2895   7.5890
    16.2058  17.1556  17.1556  17.5297  20.1205  20.3553

          k = 0.4000-0.2000 0.0000 (  8538 PWs)   bands (ev):

   -64.2857 -64.2825 -64.2796 -64.2793 -31.1033 -31.0972 -31.0966 -31.0953
   -31.0835 -31.0800 -31.0663 -31.0654 -31.0651 -31.0584 -31.0561 -31.0487
    -8.4905  -8.0489  -7.6163  -7.5624   4.6046   4.8051   4.9353   5.0638
     5.6579   5.7140   6.6971   6.8173   6.8340   7.1835   7.3062   7.6583
    15.6414  17.2265  18.7471  18.9614  19.1571  19.2684

          k = 0.4000-0.2000 0.2000 (  8510 PWs)   bands (ev):

   -64.2851 -64.2822 -64.2799 -64.2799 -31.1096 -31.1096 -31.1041 -31.0906
   -31.0789 -31.0789 -31.0623 -31.0623 -31.0616 -31.0590 -31.0518 -31.0499
    -8.3874  -7.9848  -7.6321  -7.6321   4.3411   4.3411   4.5446   5.1844
     5.8453   5.8453   6.8372   6.9496   6.9496   7.2024   7.5215   7.5360
    15.7320  17.1039  18.2408  18.2408  19.4441  20.0339

          k = 0.4000-0.2000 0.4000 (  8499 PWs)   bands (ev):

   -64.2835 -64.2815 -64.2815 -64.2806 -31.1157 -31.1135 -31.1135 -31.1059
   -31.0720 -31.0655 -31.0654 -31.0567 -31.0560 -31.0548 -31.0548 -31.0488
    -8.1287  -7.8374  -7.8373  -7.7009   4.0448   4.1381   4.1381   4.4786
     6.1921   6.6031   6.6032   7.1653   7.2498   7.2895   7.2896   7.5890
    16.2058  17.1556  17.1556  17.5297  20.1206  20.3554

          k = 0.4000-0.2000-0.4000 (  8499 PWs)   bands (ev):

   -64.2835 -64.2815 -64.2815 -64.2806 -31.1157 -31.1135 -31.1135 -31.1059
   -31.0720 -31.0655 -31.0654 -31.0567 -31.0560 -31.0548 -31.0548 -31.0488
    -8.1287  -7.8374  -7.8373  -7.7009   4.0448   4.1381   4.1381   4.4786
     6.1921   6.6031   6.6032   7.1653   7.2498   7.2895   7.2896   7.5890
    16.2058  17.1556  17.1556  17.5297  20.1210  20.3534

          k = 0.4000-0.2000-0.2000 (  8510 PWs)   bands (ev):

   -64.2851 -64.2822 -64.2799 -64.2799 -31.1096 -31.1096 -31.1041 -31.0906
   -31.0789 -31.0789 -31.0623 -31.0623 -31.0616 -31.0590 -31.0518 -31.0499
    -8.3874  -7.9848  -7.6321  -7.6321   4.3411   4.3411   4.5446   5.1844
     5.8453   5.8453   6.8372   6.9496   6.9496   7.2024   7.5215   7.5360
    15.7320  17.1039  18.2408  18.2408  19.4441  20.0339

     the Fermi energy is    10.0544 ev

!    total energy              =    -608.51633070 Ry
     estimated scf accuracy    <       0.00000002 Ry
     smearing contrib. (-TS)   =      -0.00000000 Ry
     internal energy E=F+TS    =    -608.51633070 Ry

     The total energy is F=E-TS. E is the sum of the following terms:
     one-electron contribution =    -297.28485513 Ry
     hartree contribution      =     166.02663794 Ry
     xc contribution           =     -97.98764698 Ry
     ewald contribution        =    -379.16241501 Ry
     DFT-D3 Dispersion         =      -0.10805152 Ry

     convergence has been achieved in   8 iterations

     Forces acting on atoms (cartesian axes, Ry/au):

     atom    1 type  1   force =     0.00000019    0.00000064   -0.00000025
     atom    2 type  1   force =     0.00000006    0.00000052   -0.00000001
     atom    3 type  1   force =    -0.00000013    0.00000001   -0.00000018
     atom    4 type  1   force =    -0.00000007   -0.00000112    0.00000051
     atom    5 type  2   force =    -0.00000020    0.00000007   -0.00000054
     atom    6 type  2   force =     0.00000009    0.00000073    0.00000016
     atom    7 type  2   force =    -0.00000012   -0.00000046    0.00000006
     atom    8 type  2   force =     0.00000019   -0.00000039    0.00000026

     Total force =     0.000002     Total SCF correction =     0.000016
     SCF correction compared to forces is large: reduce conv_thr to get better values


     Computing stress (Cartesian axis) and pressure

          total   stress  (Ry/bohr**3)                   (kbar)     P=       12.04
   0.00008183   0.00000000   0.00000000           12.04        0.00        0.00
   0.00000000   0.00008183  -0.00000000            0.00       12.04       -0.00
   0.00000000  -0.00000000   0.00008183            0.00       -0.00       12.04


     BFGS Geometry Optimization

     number of scf cycles    =   1
     number of bfgs steps    =   0

     enthalpy new            =    -608.6876059749 Ry

     new trust radius        =       0.0473343146 bohr
     new conv_thr            =       0.0000010000 Ry

     new unit-cell volume =    520.01617 a.u.^3 (    77.05845 Ang^3 )
     density =      3.47406 g/cm^3

CELL_PARAMETERS (angstrom)
   4.255397159   0.000000098   0.000000009
   0.000000098   4.255396970  -0.000000077
   0.000000009  -0.000000077   4.255396877

ATOMIC_POSITIONS (angstrom)
Mg            0.0000001039        0.0000003436       -0.0000001346
Mg            0.0000000858        2.1276987223        2.1276983925
Mg            2.1276985128        0.0000000144        2.1276983455
Mg            2.1276985910        2.1276979357        0.0000002397
O             2.1276985237        2.1276985323        2.1276981167
O             2.1276986252        0.0000004408        0.0000000881
O            -0.0000000164        2.1276982391       -0.0000000089
O             0.0000001059       -0.0000002455        2.1276985795


     NEW-OLD atomic charge density approx. for the potential
     extrapolated charge   65.98223, renormalised to   64.00000

     total cpu time spent up to now is       56.9 secs

     Self-consistent Calculation

     iteration #  1     ecut=   100.00 Ry     beta= 0.50
     Davidson diagonalization with overlap
     ethr =  1.00E-06,  avg # of iterations =  8.3

     total cpu time spent up to now is       67.0 secs

     total energy              =    -608.37945909 Ry
     estimated scf accuracy    <       0.07739156 Ry

     iteration #  2     ecut=   100.00 Ry     beta= 0.50
     Davidson diagonalization with overlap
     ethr =  1.21E-04,  avg # of iterations =  3.0

     total cpu time spent up to now is       73.2 secs

     total energy              =    -608.51798640 Ry
     estimated scf accuracy    <       0.11957703 Ry

     iteration #  3     ecut=   100.00 Ry     beta= 0.50
     Davidson diagonalization with overlap
     ethr =  1.21E-04,  avg # of iterations =  2.0

     total cpu time spent up to now is       77.3 secs

     total energy              =    -608.51761893 Ry
     estimated scf accuracy    <       0.02706656 Ry

     iteration #  4     ecut=   100.00 Ry     beta= 0.50
     Davidson diagonalization with overlap
     ethr =  4.23E-05,  avg # of iterations =  1.2

     total cpu time spent up to now is       81.1 secs

     total energy              =    -608.51346549 Ry
     estimated scf accuracy    <       0.00964332 Ry

     iteration #  5     ecut=   100.00 Ry     beta= 0.50
     Davidson diagonalization with overlap
     ethr =  1.51E-05,  avg # of iterations =  2.0

     total cpu time spent up to now is       86.2 secs

     total energy              =    -608.51496428 Ry
     estimated scf accuracy    <       0.00009322 Ry

     iteration #  6     ecut=   100.00 Ry     beta= 0.50
     Davidson diagonalization with overlap
     ethr =  1.46E-07,  avg # of iterations =  2.9

     total cpu time spent up to now is       90.0 secs

     total energy              =    -608.51496591 Ry
     estimated scf accuracy    <       0.00005033 Ry

     iteration #  7     ecut=   100.00 Ry     beta= 0.50
     Davidson diagonalization with overlap
     ethr =  7.86E-08,  avg # of iterations =  1.0

     total cpu time spent up to now is       93.4 secs

     total energy              =    -608.51495306 Ry
     estimated scf accuracy    <       0.00002843 Ry

     iteration #  8     ecut=   100.00 Ry     beta= 0.50
     Davidson diagonalization with overlap
     ethr =  4.44E-08,  avg # of iterations =  2.0

     total cpu time spent up to now is       97.2 secs

     total energy              =    -608.51495583 Ry
     estimated scf accuracy    <       0.00000136 Ry

     iteration #  9     ecut=   100.00 Ry     beta= 0.50
     Davidson diagonalization with overlap
     ethr =  2.13E-09,  avg # of iterations =  2.2

     total cpu time spent up to now is      101.4 secs

     End of self-consistent calculation

          k = 0.0000 0.0000 0.0000 (  8409 PWs)   bands (ev):

   -64.7823 -64.7725 -64.7725 -64.7725 -31.5970 -31.5970 -31.5970 -31.5583
   -31.5583 -31.5583 -31.5583 -31.5583 -31.5583 -31.5330 -31.5330 -31.5330
    -9.3555  -7.9011  -7.9011  -7.9011   3.7650   3.7650   3.7650   6.3899
     6.3899   6.3899   6.3899   6.3899   6.3900   7.6822   7.6822   7.6822
    12.1550  16.8651  16.8651  17.3633  17.3633  17.3633

          k =-0.0000 0.0000 0.1979 (  8501 PWs)   bands (ev):

   -64.7814 -64.7734 -64.7725 -64.7725 -31.5933 -31.5933 -31.5916 -31.5620
   -31.5620 -31.5589 -31.5589 -31.5559 -31.5559 -31.5398 -31.5354 -31.5354
    -9.2195  -8.0416  -7.8814  -7.8814   3.9518   3.9518   3.9796   6.0399
     6.0399   6.2445   6.2445   6.4955   6.4955   6.9777   7.5369   7.5369
    12.9820  17.1883  17.2153  17.4055  17.4055  17.9366

          k =-0.0000 0.0000 0.3958 (  8542 PWs)   bands (ev):

   -64.7789 -64.7759 -64.7725 -64.7725 -31.5836 -31.5836 -31.5767 -31.5716
   -31.5716 -31.5599 -31.5599 -31.5569 -31.5495 -31.5495 -31.5417 -31.5417
    -8.8598  -8.4092  -7.8493  -7.8493   4.4853   4.4853   4.6398   5.2632
     5.2632   5.7156   6.0204   6.0204   6.7868   6.7868   7.1822   7.1822
    14.6172  16.2387  18.1534  18.5786  18.5786  19.1911

          k =-0.0000 0.1979 0.0000 (  8501 PWs)   bands (ev):

   -64.7814 -64.7734 -64.7725 -64.7725 -31.5933 -31.5933 -31.5916 -31.5620
   -31.5620 -31.5589 -31.5589 -31.5559 -31.5559 -31.5398 -31.5354 -31.5354
    -9.2195  -8.0416  -7.8814  -7.8814   3.9518   3.9518   3.9796   6.0399
     6.0399   6.2445   6.2445   6.4955   6.4955   6.9777   7.5369   7.5369
    12.9820  17.1883  17.2153  17.4055  17.4055  17.9366

          k =-0.0000 0.1979 0.1979 (  8512 PWs)   bands (ev):

   -64.7805 -64.7733 -64.7733 -64.7726 -31.5902 -31.5902 -31.5897 -31.5697
   -31.5594 -31.5594 -31.5553 -31.5552 -31.5543 -31.5494 -31.5379 -31.5338
    -9.0910  -8.0062  -8.0062  -7.8758   4.0701   4.0701   4.1348   5.4370
     6.1609   6.1609   6.3435   6.4184   6.4184   6.5234   7.3664   7.5759
    13.5746  17.4899  17.6731  17.6731  17.6777  17.6777

          k =-0.0000 0.1979 0.3958 (  8538 PWs)   bands (ev):

   -64.7783 -64.7756 -64.7731 -64.7728 -31.5861 -31.5806 -31.5803 -31.5790
   -31.5688 -31.5655 -31.5536 -31.5528 -31.5525 -31.5467 -31.5446 -31.5380
    -8.7538  -8.3380  -7.9326  -7.8823   4.3285   4.5090   4.6561   4.7760
     5.3266   5.4123   6.3642   6.4818   6.4960   6.8357   6.9531   7.2965
    14.9528  16.5213  18.1706  18.4690  18.4733  18.7150

          k =-0.0000 0.1979-0.3958 (  8538 PWs)   bands (ev):

   -64.7783 -64.7756 -64.7731 -64.7728 -31.5861 -31.5806 -31.5803 -31.5790
   -31.5688 -31.5655 -31.5536 -31.5528 -31.5525 -31.5467 -31.5446 -31.5380
    -8.7538  -8.3380  -7.9326  -7.8823   4.3285   4.5090   4.6561   4.7760
     5.3266   5.4123   6.3642   6.4818   6.4960   6.8357   6.9531   7.2965
    14.9528  16.5213  18.1706  18.4690  18.4733  18.7150

          k =-0.0000 0.1979-0.1979 (  8512 PWs)   bands (ev):

   -64.7805 -64.7733 -64.7733 -64.7726 -31.5902 -31.5902 -31.5897 -31.5697
   -31.5594 -31.5594 -31.5553 -31.5552 -31.5543 -31.5494 -31.5379 -31.5338
    -9.0910  -8.0062  -8.0062  -7.8758   4.0701   4.0701   4.1348   5.4370
     6.1609   6.1609   6.3435   6.4184   6.4184   6.5234   7.3664   7.5759
    13.5746  17.4899  17.6731  17.6731  17.6777  17.6777

          k =-0.0000 0.3958 0.0000 (  8542 PWs)   bands (ev):

   -64.7789 -64.7759 -64.7725 -64.7725 -31.5836 -31.5836 -31.5767 -31.5716
   -31.5716 -31.5599 -31.5598 -31.5569 -31.5495 -31.5495 -31.5417 -31.5417
    -8.8598  -8.4092  -7.8493  -7.8493   4.4853   4.4853   4.6398   5.2632
     5.2632   5.7156   6.0204   6.0204   6.7868   6.7868   7.1822   7.1822
    14.6172  16.2387  18.1534  18.5786  18.5786  19.1911

          k =-0.0000 0.3958 0.1979 (  8538 PWs)   bands (ev):

   -64.7783 -64.7756 -64.7731 -64.7728 -31.5861 -31.5806 -31.5803 -31.5790
   -31.5688 -31.5655 -31.5536 -31.5528 -31.5525 -31.5467 -31.5446 -31.5380
    -8.7538  -8.3380  -7.9326  -7.8823   4.3285   4.5090   4.6561   4.7760
     5.3266   5.4123   6.3642   6.4818   6.4960   6.8357   6.9531   7.2965
    14.9528  16.5213  18.1706  18.4690  18.4733  18.7150

          k =-0.0000 0.3958 0.3958 (  8510 PWs)   bands (ev):

   -64.7767 -64.7747 -64.7747 -64.7737 -31.5859 -31.5859 -31.5858 -31.5782
   -31.5718 -31.5612 -31.5612 -31.5520 -31.5453 -31.5436 -31.5436 -31.5375
    -8.4830  -8.1671  -8.1671  -7.9913   4.2975   4.2975   4.3367   4.6806
     5.1393   5.8295   5.8295   6.4112   6.8681   6.9232   6.9233   7.2746
    15.8542  17.1142  17.1142  17.6524  19.0703  19.4625

          k =-0.0000 0.3958-0.3958 (  8510 PWs)   bands (ev):

   -64.7767 -64.7747 -64.7747 -64.7737 -31.5859 -31.5859 -31.5858 -31.5782
   -31.5718 -31.5612 -31.5612 -31.5520 -31.5453 -31.5436 -31.5436 -31.5375
    -8.4830  -8.1671  -8.1671  -7.9913   4.2975   4.2975   4.3367   4.6806
     5.1393   5.8295   5.8295   6.4112   6.8681   6.9232   6.9233   7.2746
    15.8542  17.1142  17.1142  17.6524  19.0702  19.4617

          k =-0.0000 0.3958-0.1979 (  8538 PWs)   bands (ev):

   -64.7783 -64.7756 -64.7731 -64.7728 -31.5861 -31.5806 -31.5803 -31.5790
   -31.5688 -31.5655 -31.5536 -31.5528 -31.5525 -31.5467 -31.5446 -31.5380
    -8.7538  -8.3380  -7.9326  -7.8823   4.3285   4.5090   4.6561   4.7760
     5.3266   5.4123   6.3642   6.4818   6.4960   6.8357   6.9531   7.2965
    14.9528  16.5213  18.1706  18.4690  18.4733  18.7150

          k = 0.1979-0.0000-0.0000 (  8501 PWs)   bands (ev):

   -64.7814 -64.7734 -64.7725 -64.7725 -31.5933 -31.5933 -31.5916 -31.5620
   -31.5620 -31.5589 -31.5589 -31.5559 -31.5559 -31.5398 -31.5354 -31.5354
    -9.2195  -8.0416  -7.8814  -7.8814   3.9518   3.9518   3.9796   6.0399
     6.0399   6.2445   6.2445   6.4955   6.4955   6.9777   7.5369   7.5369
    12.9820  17.1883  17.2153  17.4055  17.4055  17.9366

          k = 0.1979-0.0000 0.1979 (  8512 PWs)   bands (ev):

   -64.7805 -64.7733 -64.7733 -64.7726 -31.5902 -31.5902 -31.5897 -31.5697
   -31.5594 -31.5594 -31.5553 -31.5552 -31.5543 -31.5494 -31.5379 -31.5338
    -9.0910  -8.0062  -8.0061  -7.8758   4.0701   4.0701   4.1348   5.4370
     6.1609   6.1609   6.3435   6.4184   6.4184   6.5234   7.3664   7.5759
    13.5746  17.4899  17.6731  17.6731  17.6777  17.6777

          k = 0.1979 0.0000 0.3958 (  8538 PWs)   bands (ev):

   -64.7783 -64.7756 -64.7731 -64.7728 -31.5861 -31.5806 -31.5803 -31.5790
   -31.5688 -31.5655 -31.5536 -31.5528 -31.5525 -31.5467 -31.5446 -31.5380
    -8.7538  -8.3380  -7.9326  -7.8823   4.3285   4.5090   4.6561   4.7760
     5.3266   5.4123   6.3642   6.4818   6.4960   6.8357   6.9531   7.2965
    14.9528  16.5213  18.1706  18.4690  18.4733  18.7150

          k = 0.1979-0.0000-0.3958 (  8538 PWs)   bands (ev):

   -64.7783 -64.7756 -64.7731 -64.7728 -31.5861 -31.5806 -31.5803 -31.5790
   -31.5688 -31.5655 -31.5536 -31.5528 -31.5525 -31.5467 -31.5446 -31.5380
    -8.7538  -8.3380  -7.9326  -7.8823   4.3285   4.5090   4.6561   4.7760
     5.3266   5.4123   6.3642   6.4818   6.4960   6.8357   6.9531   7.2965
    14.9528  16.5213  18.1706  18.4690  18.4733  18.7150

          k = 0.1979-0.0000-0.1979 (  8512 PWs)   bands (ev):

   -64.7805 -64.7733 -64.7733 -64.7726 -31.5902 -31.5902 -31.5897 -31.5697
   -31.5594 -31.5594 -31.5553 -31.5552 -31.5543 -31.5494 -31.5379 -31.5338
    -9.0910  -8.0062  -8.0061  -7.8758   4.0701   4.0701   4.1348   5.4370
     6.1609   6.1609   6.3435   6.4184   6.4184   6.5234   7.3664   7.5759
    13.5746  17.4899  17.6731  17.6731  17.6777  17.6777

          k = 0.1979 0.1979 0.0000 (  8512 PWs)   bands (ev):

   -64.7805 -64.7733 -64.7733 -64.7726 -31.5902 -31.5902 -31.5897 -31.5697
   -31.5594 -31.5594 -31.5553 -31.5552 -31.5543 -31.5494 -31.5379 -31.5338
    -9.0910  -8.0062  -8.0062  -7.8758   4.0701   4.0701   4.1348   5.4370
     6.1609   6.1609   6.3435   6.4184   6.4184   6.5234   7.3664   7.5759
    13.5746  17.4899  17.6731  17.6731  17.6777  17.6777

          k = 0.1979 0.1979 0.1979 (  8517 PWs)   bands (ev):

   -64.7798 -64.7733 -64.7733 -64.7733 -31.5906 -31.5906 -31.5906 -31.5625
   -31.5625 -31.5625 -31.5591 -31.5523 -31.5523 -31.5523 -31.5357 -31.5357
    -8.9705  -7.9842  -7.9842  -7.9842   4.0829   4.0830   4.0830   5.7618
     5.7939   5.7939   5.7939   6.6119   6.6119   6.6119   7.4614   7.4614
    13.9754  17.3903  17.3903  17.3903  18.5621  18.5621

          k = 0.1979 0.1979 0.3958 (  8510 PWs)   bands (ev):

   -64.7778 -64.7753 -64.7733 -64.7733 -31.5915 -31.5915 -31.5866 -31.5747
   -31.5647 -31.5647 -31.5501 -31.5501 -31.5495 -31.5472 -31.5408 -31.5391
    -8.6573  -8.2787  -7.9484  -7.9484   4.0727   4.0727   4.2581   4.8697
     5.5397   5.5397   6.5027   6.6111   6.6111   6.8542   7.1657   7.1774
    15.0613  16.4430  17.6397  17.6397  18.8803  19.3604

          k = 0.1979 0.1979-0.3958 (  8510 PWs)   bands (ev):

   -64.7778 -64.7753 -64.7733 -64.7733 -31.5915 -31.5915 -31.5866 -31.5747
   -31.5647 -31.5647 -31.5501 -31.5501 -31.5495 -31.5472 -31.5408 -31.5391
    -8.6573  -8.2787  -7.9484  -7.9484   4.0727   4.0727   4.2581   4.8697
     5.5397   5.5397   6.5027   6.6111   6.6111   6.8542   7.1657   7.1774
    15.0613  16.4430  17.6397  17.6397  18.8803  19.3604

          k = 0.1979 0.1979-0.1979 (  8517 PWs)   bands (ev):

   -64.7798 -64.7733 -64.7733 -64.7733 -31.5906 -31.5906 -31.5906 -31.5625
   -31.5625 -31.5625 -31.5591 -31.5523 -31.5523 -31.5523 -31.5357 -31.5357
    -8.9705  -7.9842  -7.9842  -7.9842   4.0829   4.0830   4.0830   5.7618
     5.7939   5.7939   5.7939   6.6119   6.6119   6.6119   7.4614   7.4614
    13.9754  17.3903  17.3903  17.3903  18.5621  18.5621

          k = 0.1979 0.3958 0.0000 (  8538 PWs)   bands (ev):

   -64.7783 -64.7756 -64.7731 -64.7728 -31.5861 -31.5806 -31.5803 -31.5790
   -31.5688 -31.5655 -31.5536 -31.5528 -31.5525 -31.5467 -31.5446 -31.5380
    -8.7538  -8.3380  -7.9326  -7.8823   4.3285   4.5090   4.6561   4.7760
     5.3266   5.4123   6.3642   6.4818   6.4960   6.8357   6.9531   7.2965
    14.9528  16.5213  18.1706  18.4690  18.4733  18.7150

          k = 0.1979 0.3958 0.1979 (  8510 PWs)   bands (ev):

   -64.7778 -64.7753 -64.7733 -64.7733 -31.5915 -31.5915 -31.5866 -31.5747
   -31.5647 -31.5647 -31.5501 -31.5501 -31.5495 -31.5472 -31.5408 -31.5391
    -8.6573  -8.2787  -7.9484  -7.9483   4.0727   4.0727   4.2581   4.8697
     5.5397   5.5397   6.5027   6.6111   6.6111   6.8542   7.1657   7.1774
    15.0613  16.4430  17.6397  17.6397  18.8803  19.3604

          k = 0.1979 0.3958 0.3958 (  8499 PWs)   bands (ev):

   -64.7764 -64.7747 -64.7747 -64.7739 -31.5969 -31.5949 -31.5949 -31.5882
   -31.5586 -31.5529 -31.5529 -31.5452 -31.5445 -31.5435 -31.5435 -31.5382
    -8.4150  -8.1418  -8.1418  -8.0141   3.7833   3.8688   3.8688   4.1909
     5.8768   6.2761   6.2761   6.8203   6.9053   6.9434   6.9434   7.2343
    15.5630  16.5320  16.5320  16.9259  19.4662  19.4662

          k = 0.1979 0.3958-0.3958 (  8499 PWs)   bands (ev):

   -64.7764 -64.7747 -64.7747 -64.7739 -31.5969 -31.5949 -31.5949 -31.5882
   -31.5586 -31.5529 -31.5529 -31.5452 -31.5445 -31.5435 -31.5435 -31.5382
    -8.4150  -8.1418  -8.1418  -8.0141   3.7833   3.8688   3.8688   4.1909
     5.8768   6.2761   6.2761   6.8203   6.9053   6.9434   6.9434   7.2343
    15.5630  16.5320  16.5320  16.9259  19.4662  19.4663

          k = 0.1979 0.3958-0.1979 (  8510 PWs)   bands (ev):

   -64.7778 -64.7753 -64.7733 -64.7733 -31.5915 -31.5915 -31.5866 -31.5747
   -31.5647 -31.5647 -31.5501 -31.5501 -31.5495 -31.5472 -31.5408 -31.5391
    -8.6573  -8.2787  -7.9484  -7.9483   4.0727   4.0727   4.2581   4.8697
     5.5397   5.5397   6.5027   6.6111   6.6111   6.8542   7.1657   7.1774
    15.0613  16.4430  17.6397  17.6397  18.8803  19.3604

          k = 0.1979-0.3958-0.0000 (  8538 PWs)   bands (ev):

   -64.7783 -64.7756 -64.7731 -64.7728 -31.5861 -31.5806 -31.5803 -31.5790
   -31.5688 -31.5655 -31.5536 -31.5528 -31.5525 -31.5467 -31.5446 -31.5380
    -8.7538  -8.3380  -7.9326  -7.8823   4.3285   4.5090   4.6561   4.7760
     5.3266   5.4123   6.3642   6.4818   6.4960   6.8357   6.9531   7.2965
    14.9528  16.5213  18.1706  18.4690  18.4733  18.7150

          k = 0.1979-0.3958 0.1979 (  8510 PWs)   bands (ev):

   -64.7778 -64.7753 -64.7733 -64.7733 -31.5915 -31.5915 -31.5866 -31.5747
   -31.5647 -31.5647 -31.5501 -31.5501 -31.5495 -31.5472 -31.5408 -31.5391
    -8.6573  -8.2787  -7.9484  -7.9483   4.0727   4.0727   4.2581   4.8697
     5.5397   5.5397   6.5027   6.6111   6.6111   6.8542   7.1657   7.1774
    15.0613  16.4430  17.6397  17.6397  18.8803  19.3604

          k = 0.1979-0.3958 0.3958 (  8499 PWs)   bands (ev):

   -64.7764 -64.7747 -64.7747 -64.7739 -31.5969 -31.5949 -31.5949 -31.5882
   -31.5586 -31.5529 -31.5529 -31.5452 -31.5445 -31.5435 -31.5435 -31.5382
    -8.4150  -8.1418  -8.1418  -8.0141   3.7833   3.8688   3.8688   4.1909
     5.8768   6.2761   6.2761   6.8203   6.9053   6.9434   6.9434   7.2343
    15.5630  16.5320  16.5320  16.9259  19.4662  19.4662

          k = 0.1979-0.3958-0.3958 (  8499 PWs)   bands (ev):

   -64.7764 -64.7747 -64.7747 -64.7739 -31.5969 -31.5949 -31.5949 -31.5882
   -31.5586 -31.5529 -31.5529 -31.5452 -31.5445 -31.5435 -31.5435 -31.5382
    -8.4150  -8.1418  -8.1418  -8.0141   3.7833   3.8688   3.8688   4.1909
     5.8768   6.2761   6.2761   6.8203   6.9053   6.9434   6.9434   7.2343
    15.5630  16.5320  16.5320  16.9259  19.4662  19.4662

          k = 0.1979-0.3958-0.1979 (  8510 PWs)   bands (ev):

   -64.7778 -64.7753 -64.7733 -64.7733 -31.5915 -31.5915 -31.5866 -31.5747
   -31.5647 -31.5647 -31.5501 -31.5501 -31.5495 -31.5472 -31.5408 -31.5391
    -8.6573  -8.2787  -7.9484  -7.9483   4.0727   4.0727   4.2581   4.8697
     5.5397   5.5397   6.5027   6.6111   6.6111   6.8542   7.1657   7.1774
    15.0613  16.4430  17.6397  17.6397  18.8803  19.3604

          k = 0.1979-0.1979-0.0000 (  8512 PWs)   bands (ev):

   -64.7805 -64.7733 -64.7733 -64.7726 -31.5902 -31.5902 -31.5897 -31.5697
   -31.5594 -31.5594 -31.5553 -31.5552 -31.5543 -31.5494 -31.5379 -31.5338
    -9.0910  -8.0062  -8.0062  -7.8758   4.0701   4.0701   4.1348   5.4370
     6.1609   6.1609   6.3435   6.4184   6.4184   6.5234   7.3664   7.5759
    13.5746  17.4899  17.6731  17.6731  17.6777  17.6777

          k = 0.1979-0.1979 0.1979 (  8517 PWs)   bands (ev):

   -64.7798 -64.7733 -64.7733 -64.7733 -31.5906 -31.5906 -31.5906 -31.5625
   -31.5625 -31.5625 -31.5591 -31.5523 -31.5523 -31.5523 -31.5357 -31.5357
    -8.9705  -7.9842  -7.9842  -7.9842   4.0829   4.0830   4.0830   5.7618
     5.7939   5.7939   5.7939   6.6119   6.6119   6.6119   7.4614   7.4614
    13.9754  17.3903  17.3903  17.3903  18.5621  18.5621

          k = 0.1979-0.1979 0.3958 (  8510 PWs)   bands (ev):

   -64.7778 -64.7753 -64.7733 -64.7733 -31.5915 -31.5915 -31.5866 -31.5747
   -31.5647 -31.5647 -31.5501 -31.5501 -31.5495 -31.5472 -31.5408 -31.5391
    -8.6573  -8.2787  -7.9484  -7.9484   4.0727   4.0727   4.2581   4.8697
     5.5397   5.5397   6.5027   6.6111   6.6111   6.8542   7.1657   7.1774
    15.0613  16.4430  17.6397  17.6397  18.8803  19.3604

          k = 0.1979-0.1979-0.3958 (  8510 PWs)   bands (ev):

   -64.7778 -64.7753 -64.7733 -64.7733 -31.5915 -31.5915 -31.5866 -31.5747
   -31.5647 -31.5647 -31.5501 -31.5501 -31.5495 -31.5472 -31.5408 -31.5391
    -8.6573  -8.2787  -7.9484  -7.9484   4.0727   4.0727   4.2581   4.8697
     5.5397   5.5397   6.5027   6.6111   6.6111   6.8542   7.1657   7.1774
    15.0613  16.4430  17.6397  17.6397  18.8803  19.3604

          k = 0.1979-0.1979-0.1979 (  8517 PWs)   bands (ev):

   -64.7798 -64.7733 -64.7733 -64.7733 -31.5906 -31.5906 -31.5906 -31.5625
   -31.5625 -31.5625 -31.5591 -31.5523 -31.5523 -31.5523 -31.5357 -31.5357
    -8.9705  -7.9842  -7.9842  -7.9842   4.0829   4.0830   4.0830   5.7618
     5.7939   5.7939   5.7939   6.6119   6.6119   6.6119   7.4614   7.4614
    13.9754  17.3903  17.3903  17.3903  18.5621  18.5621

          k = 0.3958-0.0000-0.0000 (  8542 PWs)   bands (ev):

   -64.7789 -64.7759 -64.7725 -64.7725 -31.5836 -31.5836 -31.5767 -31.5716
   -31.5716 -31.5599 -31.5599 -31.5569 -31.5495 -31.5495 -31.5417 -31.5417
    -8.8598  -8.4092  -7.8493  -7.8493   4.4853   4.4853   4.6398   5.2632
     5.2632   5.7156   6.0204   6.0204   6.7868   6.7868   7.1822   7.1822
    14.6172  16.2387  18.1534  18.5786  19.1906  19.1911

          k = 0.3958-0.0000 0.1979 (  8538 PWs)   bands (ev):

   -64.7783 -64.7756 -64.7731 -64.7728 -31.5861 -31.5806 -31.5803 -31.5790
   -31.5688 -31.5655 -31.5536 -31.5528 -31.5525 -31.5467 -31.5446 -31.5380
    -8.7538  -8.3380  -7.9326  -7.8823   4.3285   4.5090   4.6561   4.7760
     5.3266   5.4123   6.3642   6.4818   6.4960   6.8357   6.9531   7.2965
    14.9528  16.5213  18.1706  18.4690  18.4733  18.7150

          k = 0.3958-0.0000 0.3958 (  8510 PWs)   bands (ev):

   -64.7767 -64.7747 -64.7747 -64.7737 -31.5859 -31.5859 -31.5858 -31.5782
   -31.5718 -31.5612 -31.5612 -31.5520 -31.5453 -31.5436 -31.5436 -31.5375
    -8.4830  -8.1671  -8.1671  -7.9913   4.2975   4.2975   4.3367   4.6806
     5.1393   5.8295   5.8295   6.4112   6.8681   6.9232   6.9233   7.2746
    15.8542  17.1142  17.1142  17.6523  19.0703  19.0703

          k = 0.3958-0.0000-0.3958 (  8510 PWs)   bands (ev):

   -64.7767 -64.7747 -64.7747 -64.7737 -31.5859 -31.5859 -31.5858 -31.5782
   -31.5718 -31.5612 -31.5612 -31.5520 -31.5453 -31.5436 -31.5436 -31.5375
    -8.4830  -8.1671  -8.1671  -7.9913   4.2975   4.2975   4.3367   4.6806
     5.1393   5.8295   5.8295   6.4112   6.8681   6.9232   6.9233   7.2746
    15.8542  17.1142  17.1142  17.6523  19.0702  19.0703

          k = 0.3958-0.0000-0.1979 (  8538 PWs)   bands (ev):

   -64.7783 -64.7756 -64.7731 -64.7728 -31.5861 -31.5806 -31.5803 -31.5790
   -31.5688 -31.5655 -31.5536 -31.5528 -31.5525 -31.5467 -31.5446 -31.5380
    -8.7538  -8.3380  -7.9326  -7.8823   4.3285   4.5090   4.6561   4.7760
     5.3266   5.4123   6.3642   6.4818   6.4960   6.8357   6.9531   7.2965
    14.9528  16.5213  18.1706  18.4690  18.4733  18.7150

          k = 0.3958 0.1979 0.0000 (  8538 PWs)   bands (ev):

   -64.7783 -64.7756 -64.7731 -64.7728 -31.5861 -31.5806 -31.5803 -31.5790
   -31.5688 -31.5655 -31.5536 -31.5528 -31.5525 -31.5467 -31.5446 -31.5380
    -8.7538  -8.3380  -7.9326  -7.8823   4.3285   4.5090   4.6561   4.7760
     5.3266   5.4123   6.3642   6.4818   6.4960   6.8357   6.9531   7.2965
    14.9528  16.5213  18.1706  18.4690  18.4733  18.7150

          k = 0.3958 0.1979 0.1979 (  8510 PWs)   bands (ev):

   -64.7778 -64.7753 -64.7733 -64.7733 -31.5915 -31.5915 -31.5866 -31.5747
   -31.5647 -31.5647 -31.5501 -31.5501 -31.5495 -31.5472 -31.5408 -31.5391
    -8.6573  -8.2787  -7.9484  -7.9484   4.0727   4.0727   4.2581   4.8697
     5.5397   5.5397   6.5027   6.6111   6.6111   6.8542   7.1657   7.1774
    15.0613  16.4430  17.6397  17.6397  18.8803  19.3604

          k = 0.3958 0.1979 0.3958 (  8499 PWs)   bands (ev):

   -64.7764 -64.7747 -64.7747 -64.7739 -31.5969 -31.5949 -31.5949 -31.5882
   -31.5586 -31.5529 -31.5529 -31.5452 -31.5445 -31.5435 -31.5435 -31.5382
    -8.4150  -8.1418  -8.1418  -8.0141   3.7833   3.8688   3.8688   4.1909
     5.8768   6.2761   6.2761   6.8203   6.9053   6.9433   6.9434   7.2343
    15.5630  16.5319  16.5320  16.9259  19.4662  19.4662

          k = 0.3958 0.1979-0.3958 (  8499 PWs)   bands (ev):

   -64.7764 -64.7747 -64.7747 -64.7739 -31.5969 -31.5949 -31.5949 -31.5882
   -31.5586 -31.5529 -31.5529 -31.5452 -31.5445 -31.5435 -31.5435 -31.5382
    -8.4150  -8.1418  -8.1418  -8.0141   3.7833   3.8688   3.8688   4.1909
     5.8768   6.2761   6.2761   6.8203   6.9053   6.9433   6.9434   7.2343
    15.5630  16.5319  16.5320  16.9259  19.4662  19.4662

          k = 0.3958 0.1979-0.1979 (  8510 PWs)   bands (ev):

   -64.7778 -64.7753 -64.7733 -64.7733 -31.5915 -31.5915 -31.5866 -31.5747
   -31.5647 -31.5647 -31.5501 -31.5501 -31.5495 -31.5472 -31.5408 -31.5391
    -8.6573  -8.2787  -7.9484  -7.9484   4.0727   4.0727   4.2581   4.8697
     5.5397   5.5397   6.5027   6.6111   6.6111   6.8542   7.1657   7.1774
    15.0613  16.4430  17.6397  17.6397  18.8803  19.3604

          k = 0.3958 0.3958 0.0000 (  8510 PWs)   bands (ev):

   -64.7767 -64.7747 -64.7747 -64.7737 -31.5859 -31.5859 -31.5858 -31.5782
   -31.5718 -31.5612 -31.5612 -31.5520 -31.5453 -31.5436 -31.5436 -31.5375
    -8.4830  -8.1671  -8.1671  -7.9913   4.2975   4.2975   4.3367   4.6806
     5.1393   5.8295   5.8295   6.4112   6.8681   6.9232   6.9233   7.2746
    15.8542  17.1142  17.1142  17.6523  19.0703  19.0703

          k = 0.3958 0.3958 0.1979 (  8499 PWs)   bands (ev):

   -64.7764 -64.7747 -64.7747 -64.7739 -31.5969 -31.5949 -31.5949 -31.5882
   -31.5586 -31.5529 -31.5529 -31.5452 -31.5445 -31.5435 -31.5435 -31.5382
    -8.4150  -8.1418  -8.1418  -8.0141   3.7833   3.8688   3.8688   4.1909
     5.8768   6.2761   6.2761   6.8203   6.9053   6.9434   6.9434   7.2343
    15.5630  16.5320  16.5320  16.9259  19.4662  19.4663

          k = 0.3958 0.3958 0.3958 (  8465 PWs)   bands (ev):

   -64.7756 -64.7747 -64.7747 -64.7747 -31.6046 -31.6046 -31.6046 -31.6010
   -31.5450 -31.5450 -31.5450 -31.5425 -31.5425 -31.5425 -31.5401 -31.5401
    -8.2553  -8.1002  -8.1002  -8.1002   3.3956   3.3956   3.3956   3.5661
     6.7539   6.7539   6.7539   7.0045   7.0045   7.0045   7.1302   7.1302
    15.3517  15.8686  15.8686  15.8686  19.8235  19.8357

          k = 0.3958 0.3958-0.3958 (  8465 PWs)   bands (ev):

   -64.7756 -64.7747 -64.7747 -64.7747 -31.6046 -31.6046 -31.6046 -31.6010
   -31.5450 -31.5450 -31.5450 -31.5425 -31.5425 -31.5425 -31.5401 -31.5401
    -8.2553  -8.1002  -8.1002  -8.1002   3.3956   3.3956   3.3956   3.5661
     6.7539   6.7539   6.7539   7.0045   7.0045   7.0045   7.1302   7.1302
    15.3517  15.8686  15.8686  15.8686  19.8235  19.8357

          k = 0.3958 0.3958-0.1979 (  8499 PWs)   bands (ev):

   -64.7764 -64.7747 -64.7747 -64.7739 -31.5969 -31.5949 -31.5949 -31.5882
   -31.5586 -31.5529 -31.5529 -31.5452 -31.5445 -31.5435 -31.5435 -31.5382
    -8.4150  -8.1418  -8.1418  -8.0141   3.7833   3.8688   3.8688   4.1909
     5.8768   6.2761   6.2761   6.8203   6.9053   6.9434   6.9434   7.2343
    15.5630  16.5320  16.5320  16.9259  19.4662  19.4662

          k = 0.3958-0.3958-0.0000 (  8510 PWs)   bands (ev):

   -64.7767 -64.7747 -64.7747 -64.7737 -31.5859 -31.5859 -31.5858 -31.5782
   -31.5718 -31.5612 -31.5612 -31.5520 -31.5453 -31.5436 -31.5436 -31.5375
    -8.4830  -8.1671  -8.1671  -7.9913   4.2975   4.2975   4.3367   4.6806
     5.1393   5.8295   5.8295   6.4112   6.8681   6.9232   6.9233   7.2746
    15.8542  17.1142  17.1142  17.6523  19.0703  19.4627

          k = 0.3958-0.3958 0.1979 (  8499 PWs)   bands (ev):

   -64.7764 -64.7747 -64.7747 -64.7739 -31.5969 -31.5949 -31.5949 -31.5882
   -31.5586 -31.5529 -31.5529 -31.5452 -31.5445 -31.5435 -31.5435 -31.5382
    -8.4150  -8.1418  -8.1418  -8.0141   3.7833   3.8688   3.8688   4.1909
     5.8768   6.2761   6.2761   6.8203   6.9053   6.9434   6.9434   7.2343
    15.5630  16.5320  16.5320  16.9259  19.4662  19.4663

          k = 0.3958-0.3958 0.3958 (  8465 PWs)   bands (ev):

   -64.7756 -64.7747 -64.7747 -64.7747 -31.6046 -31.6046 -31.6046 -31.6010
   -31.5450 -31.5450 -31.5450 -31.5425 -31.5425 -31.5425 -31.5401 -31.5401
    -8.2553  -8.1002  -8.1002  -8.1002   3.3956   3.3956   3.3956   3.5661
     6.7539   6.7539   6.7539   7.0045   7.0045   7.0045   7.1302   7.1302
    15.3517  15.8686  15.8686  15.8686  19.8235  19.8357

          k = 0.3958-0.3958-0.3958 (  8465 PWs)   bands (ev):

   -64.7756 -64.7747 -64.7747 -64.7747 -31.6046 -31.6046 -31.6046 -31.6010
   -31.5450 -31.5450 -31.5450 -31.5425 -31.5425 -31.5425 -31.5401 -31.5401
    -8.2553  -8.1002  -8.1002  -8.1002   3.3956   3.3956   3.3956   3.5661
     6.7539   6.7539   6.7539   7.0045   7.0045   7.0045   7.1302   7.1302
    15.3517  15.8686  15.8686  15.8686  19.8235  19.8357

          k = 0.3958-0.3958-0.1979 (  8499 PWs)   bands (ev):

   -64.7764 -64.7747 -64.7747 -64.7739 -31.5969 -31.5949 -31.5949 -31.5882
   -31.5586 -31.5529 -31.5529 -31.5452 -31.5445 -31.5435 -31.5435 -31.5382
    -8.4150  -8.1418  -8.1418  -8.0141   3.7833   3.8688   3.8688   4.1909
     5.8768   6.2761   6.2761   6.8203   6.9053   6.9434   6.9434   7.2343
    15.5630  16.5320  16.5320  16.9259  19.4662  19.4662

          k = 0.3958-0.1979-0.0000 (  8538 PWs)   bands (ev):

   -64.7783 -64.7756 -64.7731 -64.7728 -31.5861 -31.5806 -31.5803 -31.5790
   -31.5688 -31.5655 -31.5536 -31.5528 -31.5525 -31.5467 -31.5446 -31.5380
    -8.7538  -8.3380  -7.9326  -7.8823   4.3285   4.5090   4.6561   4.7760
     5.3266   5.4123   6.3642   6.4818   6.4960   6.8357   6.9531   7.2965
    14.9528  16.5213  18.1706  18.4690  18.4733  18.7150

          k = 0.3958-0.1979 0.1979 (  8510 PWs)   bands (ev):

   -64.7778 -64.7753 -64.7733 -64.7733 -31.5915 -31.5915 -31.5866 -31.5747
   -31.5647 -31.5647 -31.5501 -31.5501 -31.5495 -31.5472 -31.5408 -31.5391
    -8.6573  -8.2787  -7.9484  -7.9484   4.0727   4.0727   4.2581   4.8697
     5.5397   5.5397   6.5027   6.6111   6.6111   6.8542   7.1657   7.1774
    15.0613  16.4430  17.6397  17.6397  18.8803  19.3604

          k = 0.3958-0.1979 0.3958 (  8499 PWs)   bands (ev):

   -64.7764 -64.7747 -64.7747 -64.7739 -31.5969 -31.5949 -31.5949 -31.5882
   -31.5586 -31.5529 -31.5529 -31.5452 -31.5445 -31.5435 -31.5435 -31.5382
    -8.4150  -8.1418  -8.1418  -8.0141   3.7833   3.8688   3.8688   4.1909
     5.8768   6.2761   6.2761   6.8203   6.9053   6.9433   6.9434   7.2343
    15.5630  16.5319  16.5320  16.9259  19.4662  19.4662

          k = 0.3958-0.1979-0.3958 (  8499 PWs)   bands (ev):

   -64.7764 -64.7747 -64.7747 -64.7739 -31.5969 -31.5949 -31.5949 -31.5882
   -31.5586 -31.5529 -31.5529 -31.5452 -31.5445 -31.5435 -31.5435 -31.5382
    -8.4150  -8.1418  -8.1418  -8.0141   3.7833   3.8688   3.8688   4.1909
     5.8768   6.2761   6.2761   6.8203   6.9053   6.9433   6.9434   7.2343
    15.5630  16.5319  16.5320  16.9259  19.4662  19.4663

          k = 0.3958-0.1979-0.1979 (  8510 PWs)   bands (ev):

   -64.7778 -64.7753 -64.7733 -64.7733 -31.5915 -31.5915 -31.5866 -31.5747
   -31.5647 -31.5647 -31.5501 -31.5501 -31.5495 -31.5472 -31.5408 -31.5391
    -8.6573  -8.2787  -7.9484  -7.9484   4.0727   4.0727   4.2581   4.8697
     5.5397   5.5397   6.5027   6.6111   6.6111   6.8542   7.1657   7.1774
    15.0613  16.4430  17.6397  17.6397  18.8803  19.3604

     the Fermi energy is     9.3605 ev

!    total energy              =    -608.51495605 Ry
     estimated scf accuracy    <       0.00000004 Ry
     smearing contrib. (-TS)   =      -0.00000000 Ry
     internal energy E=F+TS    =    -608.51495605 Ry

     The total energy is F=E-TS. E is the sum of the following terms:
     one-electron contribution =    -303.40215750 Ry
     hartree contribution      =     168.05477377 Ry
     xc contribution           =     -97.85668400 Ry
     ewald contribution        =    -375.20657387 Ry
     DFT-D3 Dispersion         =      -0.10431445 Ry

     convergence has been achieved in   9 iterations

     Forces acting on atoms (cartesian axes, Ry/au):

     atom    1 type  1   force =    -0.00000002   -0.00000017   -0.00000000
     atom    2 type  1   force =    -0.00000005   -0.00000008   -0.00000003
     atom    3 type  1   force =     0.00000010   -0.00000001    0.00000005
     atom    4 type  1   force =     0.00000007    0.00000030   -0.00000014
     atom    5 type  2   force =    -0.00000036   -0.00000001    0.00000012
     atom    6 type  2   force =     0.00000021   -0.00000000    0.00000002
     atom    7 type  2   force =     0.00000003    0.00000001   -0.00000000
     atom    8 type  2   force =     0.00000001   -0.00000003   -0.00000002

     Total force =     0.000001     Total SCF correction =     0.000003
     SCF correction compared to forces is large: reduce conv_thr to get better values


     Computing stress (Cartesian axis) and pressure

          total   stress  (Ry/bohr**3)                   (kbar)     P=      -35.26
  -0.00023973  -0.00000000  -0.00000000          -35.27       -0.00       -0.00
  -0.00000000  -0.00023972   0.00000000           -0.00      -35.26        0.00
  -0.00000000   0.00000000  -0.00023972           -0.00        0.00      -35.26


     number of scf cycles    =   2
     number of bfgs steps    =   1

     enthalpy old            =    -608.6876059749 Ry
     enthalpy new            =    -608.6917059558 Ry

     CASE: enthalpy_new < enthalpy_old

     new trust radius        =       0.0152377455 bohr
     new conv_thr            =       0.0000000100 Ry

     new unit-cell volume =    525.24565 a.u.^3 (    77.83338 Ang^3 )
     density =      3.43947 g/cm^3

CELL_PARAMETERS (angstrom)
   4.269613713  -0.000000004  -0.000000174
  -0.000000004   4.269614160  -0.000000054
  -0.000000174  -0.000000054   4.269614349

ATOMIC_POSITIONS (angstrom)
Mg            0.0000000934        0.0000002198       -0.0000001369
Mg           -0.0000000936        2.1348072706        2.1348071197
Mg            2.1348067696       -0.0000000321        2.1348070243
Mg            2.1348068654        2.1348066929        0.0000000618
O             2.1348064033        2.1348070767        2.1348068551
O             2.1348070532        0.0000003885        0.0000000138
O            -0.0000000444        2.1348068410       -0.0000000005
O             0.0000000226       -0.0000002548        2.1348073037


     NEW-OLD atomic charge density approx. for the potential
     extrapolated charge   64.63717, renormalised to   64.00000

     total cpu time spent up to now is      111.9 secs

     Self-consistent Calculation

     iteration #  1     ecut=   100.00 Ry     beta= 0.50
     Davidson diagonalization with overlap
     ethr =  1.00E-06,  avg # of iterations =  3.8

     total cpu time spent up to now is      119.8 secs

     total energy              =    -608.49941341 Ry
     estimated scf accuracy    <       0.00830003 Ry

     iteration #  2     ecut=   100.00 Ry     beta= 0.50
     Davidson diagonalization with overlap
     ethr =  1.30E-05,  avg # of iterations =  3.2

     total cpu time spent up to now is      125.0 secs

     total energy              =    -608.51368943 Ry
     estimated scf accuracy    <       0.01258759 Ry

     iteration #  3     ecut=   100.00 Ry     beta= 0.50
     Davidson diagonalization with overlap
     ethr =  1.30E-05,  avg # of iterations =  2.0

     total cpu time spent up to now is      128.9 secs

     total energy              =    -608.51367712 Ry
     estimated scf accuracy    <       0.00275319 Ry

     iteration #  4     ecut=   100.00 Ry     beta= 0.50
     Davidson diagonalization with overlap
     ethr =  4.30E-06,  avg # of iterations =  1.0

     total cpu time spent up to now is      133.2 secs

     total energy              =    -608.51326663 Ry
     estimated scf accuracy    <       0.00093051 Ry

     iteration #  5     ecut=   100.00 Ry     beta= 0.50
     Davidson diagonalization with overlap
     ethr =  1.45E-06,  avg # of iterations =  2.0

     total cpu time spent up to now is      138.0 secs

     total energy              =    -608.51343814 Ry
     estimated scf accuracy    <       0.00000167 Ry

     iteration #  6     ecut=   100.00 Ry     beta= 0.50
     Davidson diagonalization with overlap
     ethr =  2.62E-09,  avg # of iterations =  2.1

     total cpu time spent up to now is      142.5 secs

     total energy              =    -608.51343876 Ry
     estimated scf accuracy    <       0.00000264 Ry

     iteration #  7     ecut=   100.00 Ry     beta= 0.50
     Davidson diagonalization with overlap
     ethr =  2.62E-09,  avg # of iterations =  1.0

     total cpu time spent up to now is      145.7 secs

     total energy              =    -608.51343719 Ry
     estimated scf accuracy    <       0.00000263 Ry

     iteration #  8     ecut=   100.00 Ry     beta= 0.50
     Davidson diagonalization with overlap
     ethr =  2.62E-09,  avg # of iterations =  2.1

     total cpu time spent up to now is      150.0 secs

     End of self-consistent calculation

          k = 0.0000 0.0000 0.0000 (  8409 PWs)   bands (ev):

   -64.9364 -64.9271 -64.9271 -64.9271 -31.7481 -31.7481 -31.7481 -31.7109
   -31.7109 -31.7109 -31.7109 -31.7109 -31.7109 -31.6866 -31.6866 -31.6866
    -9.4261  -7.9991  -7.9991  -7.9991   3.6857   3.6857   3.6857   6.2850
     6.2850   6.2850   6.2850   6.2850   6.2850   7.5640   7.5640   7.5640
    11.9430  16.7316  16.7316  17.1386  17.1386  17.1386

          k = 0.0000 0.0000 0.1973 (  8501 PWs)   bands (ev):

   -64.9355 -64.9280 -64.9271 -64.9271 -31.7445 -31.7445 -31.7428 -31.7145
   -31.7145 -31.7115 -31.7115 -31.7086 -31.7086 -31.6931 -31.6889 -31.6889
    -9.2925  -8.1368  -7.9800  -7.9800   3.8710   3.8710   3.8965   5.9393
     5.9393   6.1409   6.1409   6.3896   6.3896   6.8612   7.4204   7.4204
    12.7711  16.9903  17.0526  17.2606  17.2606  17.7088

          k = 0.0000 0.0000 0.3945 (  8542 PWs)   bands (ev):

   -64.9332 -64.9303 -64.9271 -64.9271 -31.7352 -31.7352 -31.7285 -31.7237
   -31.7237 -31.7124 -31.7124 -31.7095 -31.7025 -31.7025 -31.6950 -31.6950
    -8.9395  -8.4973  -7.9489  -7.9489   4.4002   4.4002   4.5467   5.1710
     5.1710   5.6093   5.9190   5.9190   6.6784   6.6784   7.0697   7.0697
    14.4027  16.0179  18.0112  18.4065  18.4065  18.9557

          k = 0.0000 0.1973 0.0000 (  8501 PWs)   bands (ev):

   -64.9355 -64.9280 -64.9271 -64.9271 -31.7445 -31.7445 -31.7428 -31.7145
[...]
   -31.7180 -31.7125 -31.7125 -31.7051 -31.7045 -31.7035 -31.7035 -31.6984
    -8.5077  -8.2403  -8.2403  -8.1154   3.6987   3.7817   3.7817   4.0978
     5.7747   6.1702   6.1702   6.7086   6.7938   6.8312   6.8312   7.1194
    15.3537  16.3284  16.3284  16.7290  19.2524  19.4364

          k = 0.1972 0.3945-0.3945 (  8876 PWs)   bands (ev):

   -64.9377 -64.9361 -64.9361 -64.9354 -31.7546 -31.7527 -31.7527 -31.7462
   -31.7180 -31.7125 -31.7125 -31.7051 -31.7045 -31.7035 -31.7035 -31.6984
    -8.5077  -8.2403  -8.2403  -8.1154   3.6987   3.7817   3.7817   4.0978
     5.7747   6.1702   6.1702   6.7086   6.7938   6.8312   6.8312   7.1194
    15.3537  16.3284  16.3284  16.7290  19.2524  19.4364

          k = 0.1972 0.3945-0.1972 (  8884 PWs)   bands (ev):

   -64.9390 -64.9367 -64.9348 -64.9348 -31.7495 -31.7495 -31.7448 -31.7334
   -31.7238 -31.7238 -31.7098 -31.7098 -31.7093 -31.7070 -31.7009 -31.6993
    -8.7448  -8.3738  -8.0507  -8.0507   3.9859   3.9859   4.1654   4.7679
     5.4408   5.4408   6.3944   6.5015   6.5015   6.7414   7.0505   7.0613
    14.8434  16.2270  17.4432  17.4432  19.1389  19.1392

          k = 0.1972-0.3945-0.0000 (  8869 PWs)   bands (ev):

   -64.9395 -64.9369 -64.9346 -64.9343 -31.7443 -31.7390 -31.7388 -31.7375
   -31.7277 -31.7245 -31.7132 -31.7124 -31.7122 -31.7065 -31.7045 -31.6983
    -8.8391  -8.4317  -8.0350  -7.9858   4.2392   4.4132   4.5658   4.6829
     5.2194   5.3147   6.2565   6.3732   6.3867   6.7231   6.8388   7.1794
    14.7295  16.2922  17.9821  18.2441  18.3136  18.5342

          k = 0.1972-0.3945 0.1972 (  8884 PWs)   bands (ev):

   -64.9390 -64.9367 -64.9348 -64.9348 -31.7495 -31.7495 -31.7448 -31.7334
   -31.7238 -31.7238 -31.7098 -31.7098 -31.7093 -31.7070 -31.7009 -31.6993
    -8.7448  -8.3738  -8.0507  -8.0507   3.9859   3.9859   4.1654   4.7679
     5.4408   5.4408   6.3944   6.5015   6.5015   6.7414   7.0505   7.0613
    14.8434  16.2270  17.4432  17.4432  19.1390  19.1392

          k = 0.1972-0.3945 0.3945 (  8876 PWs)   bands (ev):

   -64.9377 -64.9361 -64.9361 -64.9354 -31.7546 -31.7527 -31.7527 -31.7462
   -31.7180 -31.7125 -31.7125 -31.7051 -31.7045 -31.7035 -31.7035 -31.6984
    -8.5077  -8.2403  -8.2403  -8.1154   3.6987   3.7817   3.7817   4.0978
     5.7747   6.1702   6.1702   6.7086   6.7938   6.8312   6.8312   7.1194
    15.3537  16.3284  16.3284  16.7290  19.2524  19.4364

          k = 0.1972-0.3945-0.3945 (  8876 PWs)   bands (ev):

   -64.9377 -64.9361 -64.9361 -64.9354 -31.7546 -31.7527 -31.7527 -31.7462
   -31.7180 -31.7125 -31.7125 -31.7051 -31.7045 -31.7035 -31.7035 -31.6984
    -8.5077  -8.2403  -8.2403  -8.1154   3.6987   3.7817   3.7817   4.0978
     5.7747   6.1702   6.1702   6.7086   6.7938   6.8312   6.8312   7.1194
    15.3537  16.3284  16.3284  16.7290  19.2524  19.4364

          k = 0.1972-0.3945-0.1972 (  8884 PWs)   bands (ev):

   -64.9390 -64.9367 -64.9348 -64.9348 -31.7495 -31.7495 -31.7448 -31.7334
   -31.7238 -31.7238 -31.7098 -31.7098 -31.7093 -31.7070 -31.7009 -31.6993
    -8.7448  -8.3738  -8.0507  -8.0507   3.9859   3.9859   4.1654   4.7679
     5.4408   5.4408   6.3944   6.5015   6.5015   6.7414   7.0505   7.0613
    14.8434  16.2270  17.4432  17.4432  19.1391  19.1392

          k = 0.1972-0.1972 0.0000 (  8874 PWs)   bands (ev):

   -64.9416 -64.9348 -64.9348 -64.9341 -31.7483 -31.7483 -31.7478 -31.7286
   -31.7188 -31.7188 -31.7148 -31.7148 -31.7138 -31.7091 -31.6981 -31.6942
    -9.1697  -8.1065  -8.1065  -7.9790   3.9828   3.9828   4.0490   5.3375
     6.0548   6.0548   6.2262   6.3092   6.3092   6.4136   7.2472   7.4551
    13.3542  17.3177  17.4372  17.4372  17.5243  17.5243

          k = 0.1972-0.1972 0.1972 (  8874 PWs)   bands (ev):

   -64.9409 -64.9348 -64.9348 -64.9348 -31.7486 -31.7486 -31.7486 -31.7217
   -31.7217 -31.7217 -31.7184 -31.7119 -31.7119 -31.7119 -31.6960 -31.6960
    -9.0516  -8.0853  -8.0853  -8.0853   3.9956   3.9956   3.9956   5.6501
     5.6919   5.6919   5.6919   6.5014   6.5014   6.5014   7.3420   7.3420
    13.7562  17.1985  17.1985  17.1985  18.3526  18.3526

          k = 0.1972-0.1972 0.3945 (  8884 PWs)   bands (ev):

   -64.9390 -64.9367 -64.9348 -64.9348 -31.7495 -31.7495 -31.7448 -31.7334
   -31.7238 -31.7238 -31.7098 -31.7098 -31.7093 -31.7070 -31.7009 -31.6993
    -8.7448  -8.3738  -8.0507  -8.0507   3.9859   3.9859   4.1654   4.7679
     5.4408   5.4408   6.3944   6.5015   6.5015   6.7414   7.0505   7.0613
    14.8434  16.2270  17.4432  17.4432  19.1390  19.1392

          k = 0.1972-0.1972-0.3945 (  8884 PWs)   bands (ev):

   -64.9390 -64.9367 -64.9348 -64.9348 -31.7495 -31.7495 -31.7448 -31.7334
   -31.7238 -31.7238 -31.7098 -31.7098 -31.7093 -31.7070 -31.7009 -31.6993
    -8.7448  -8.3738  -8.0507  -8.0507   3.9859   3.9859   4.1654   4.7679
     5.4408   5.4408   6.3944   6.5015   6.5015   6.7414   7.0505   7.0613
    14.8434  16.2270  17.4432  17.4432  19.1389  19.1392

          k = 0.1972-0.1972-0.1972 (  8874 PWs)   bands (ev):

   -64.9409 -64.9348 -64.9348 -64.9348 -31.7486 -31.7486 -31.7486 -31.7217
   -31.7217 -31.7217 -31.7184 -31.7119 -31.7119 -31.7119 -31.6960 -31.6960
    -9.0516  -8.0853  -8.0853  -8.0853   3.9956   3.9956   3.9956   5.6501
     5.6919   5.6919   5.6919   6.5014   6.5014   6.5014   7.3420   7.3420
    13.7562  17.1985  17.1985  17.1985  18.3526  18.3526

          k = 0.3945 0.0000 0.0000 (  8866 PWs)   bands (ev):

   -64.9401 -64.9372 -64.9340 -64.9340 -31.7419 -31.7419 -31.7352 -31.7305
   -31.7305 -31.7192 -31.7192 -31.7163 -31.7093 -31.7093 -31.7018 -31.7018
    -8.9429  -8.5011  -7.9532  -7.9532   4.3965   4.3965   4.5426   5.1670
     5.1670   5.6047   5.9146   5.9146   6.6737   6.6737   7.0648   7.0648
    14.3934  16.0084  18.0051  18.3991  18.3991  19.4286

          k = 0.3945 0.0000 0.1972 (  8869 PWs)   bands (ev):

   -64.9395 -64.9369 -64.9346 -64.9343 -31.7443 -31.7390 -31.7388 -31.7375
   -31.7277 -31.7245 -31.7132 -31.7124 -31.7122 -31.7065 -31.7045 -31.6983
    -8.8391  -8.4317  -8.0350  -7.9858   4.2392   4.4132   4.5658   4.6829
     5.2194   5.3147   6.2565   6.3732   6.3867   6.7231   6.8388   7.1794
    14.7295  16.2922  17.9821  18.2441  18.3136  18.5342

          k = 0.3945 0.0000 0.3945 (  8890 PWs)   bands (ev):

   -64.9380 -64.9361 -64.9361 -64.9351 -31.7441 -31.7441 -31.7440 -31.7367
   -31.7306 -31.7205 -31.7205 -31.7116 -31.7052 -31.7036 -31.7036 -31.6977
    -8.5741  -8.2648  -8.2648  -8.0928   4.2050   4.2050   4.2460   4.5811
     5.0447   5.7279   5.7279   6.3034   6.7567   6.8113   6.8113   7.1591
    15.6322  16.8928  16.8928  17.4478  18.8868  19.2622

          k = 0.3945-0.0000-0.3945 (  8890 PWs)   bands (ev):

   -64.9380 -64.9361 -64.9361 -64.9351 -31.7441 -31.7441 -31.7440 -31.7367
   -31.7306 -31.7205 -31.7205 -31.7116 -31.7052 -31.7036 -31.7036 -31.6977
    -8.5741  -8.2648  -8.2648  -8.0928   4.2050   4.2050   4.2460   4.5811
     5.0447   5.7279   5.7279   6.3034   6.7568   6.8113   6.8113   7.1591
    15.6322  16.8928  16.8928  17.4478  18.8868  19.2617

          k = 0.3945-0.0000-0.1972 (  8869 PWs)   bands (ev):

   -64.9395 -64.9369 -64.9346 -64.9343 -31.7443 -31.7390 -31.7388 -31.7375
   -31.7277 -31.7245 -31.7132 -31.7124 -31.7122 -31.7065 -31.7045 -31.6983
    -8.8391  -8.4317  -8.0350  -7.9858   4.2392   4.4132   4.5658   4.6829
     5.2194   5.3147   6.2565   6.3732   6.3867   6.7231   6.8388   7.1794
    14.7295  16.2922  17.9821  18.2441  18.3136  18.5342

          k = 0.3945 0.1972 0.0000 (  8869 PWs)   bands (ev):

   -64.9395 -64.9369 -64.9346 -64.9343 -31.7443 -31.7390 -31.7388 -31.7375
   -31.7277 -31.7245 -31.7132 -31.7124 -31.7122 -31.7065 -31.7045 -31.6983
    -8.8391  -8.4317  -8.0350  -7.9858   4.2392   4.4132   4.5658   4.6829
     5.2194   5.3147   6.2565   6.3732   6.3867   6.7231   6.8388   7.1794
    14.7295  16.2922  17.9821  18.2441  18.3136  18.5342

          k = 0.3945 0.1972 0.1972 (  8884 PWs)   bands (ev):

   -64.9390 -64.9367 -64.9348 -64.9348 -31.7495 -31.7495 -31.7448 -31.7334
   -31.7238 -31.7238 -31.7098 -31.7098 -31.7093 -31.7070 -31.7009 -31.6993
    -8.7448  -8.3738  -8.0507  -8.0507   3.9859   3.9859   4.1654   4.7679
     5.4408   5.4408   6.3944   6.5015   6.5015   6.7414   7.0505   7.0613
    14.8434  16.2270  17.4432  17.4432  19.1387  19.1392

          k = 0.3945 0.1972 0.3945 (  8876 PWs)   bands (ev):

   -64.9377 -64.9361 -64.9361 -64.9354 -31.7546 -31.7527 -31.7527 -31.7462
   -31.7180 -31.7125 -31.7125 -31.7051 -31.7045 -31.7035 -31.7035 -31.6984
    -8.5077  -8.2403  -8.2403  -8.1154   3.6987   3.7817   3.7817   4.0978
     5.7747   6.1702   6.1702   6.7086   6.7938   6.8312   6.8312   7.1194
    15.3537  16.3284  16.3284  16.7290  19.2524  19.4364

          k = 0.3945 0.1972-0.3945 (  8876 PWs)   bands (ev):

   -64.9377 -64.9361 -64.9361 -64.9354 -31.7546 -31.7527 -31.7527 -31.7462
   -31.7180 -31.7125 -31.7125 -31.7051 -31.7045 -31.7035 -31.7035 -31.6984
    -8.5077  -8.2403  -8.2403  -8.1154   3.6987   3.7817   3.7817   4.0978
     5.7747   6.1702   6.1702   6.7086   6.7938   6.8312   6.8312   7.1194
    15.3537  16.3284  16.3284  16.7290  19.2524  19.4364

          k = 0.3945 0.1972-0.1972 (  8884 PWs)   bands (ev):

   -64.9390 -64.9367 -64.9348 -64.9348 -31.7495 -31.7495 -31.7448 -31.7334
   -31.7238 -31.7238 -31.7098 -31.7098 -31.7093 -31.7070 -31.7009 -31.6993
    -8.7448  -8.3738  -8.0507  -8.0507   3.9859   3.9859   4.1654   4.7679
     5.4408   5.4408   6.3944   6.5015   6.5015   6.7414   7.0505   7.0613
    14.8434  16.2270  17.4432  17.4432  19.1391  19.1392

          k = 0.3945 0.3945 0.0000 (  8890 PWs)   bands (ev):

   -64.9380 -64.9361 -64.9361 -64.9351 -31.7441 -31.7441 -31.7440 -31.7367
   -31.7306 -31.7205 -31.7205 -31.7116 -31.7052 -31.7036 -31.7036 -31.6977
    -8.5741  -8.2648  -8.2648  -8.0928   4.2050   4.2050   4.2460   4.5811
     5.0447   5.7279   5.7279   6.3034   6.7568   6.8113   6.8113   7.1591
    15.6322  16.8928  16.8928  17.4478  18.8868  19.2622

          k = 0.3945 0.3945 0.1972 (  8876 PWs)   bands (ev):

   -64.9377 -64.9361 -64.9361 -64.9354 -31.7546 -31.7527 -31.7527 -31.7462
   -31.7180 -31.7125 -31.7125 -31.7051 -31.7045 -31.7035 -31.7035 -31.6984
    -8.5077  -8.2403  -8.2403  -8.1154   3.6987   3.7817   3.7817   4.0978
     5.7747   6.1702   6.1702   6.7086   6.7938   6.8312   6.8312   7.1194
    15.3537  16.3284  16.3284  16.7290  19.2524  19.4364

          k = 0.3945 0.3945 0.3945 (  8889 PWs)   bands (ev):

   -64.9370 -64.9361 -64.9361 -64.9361 -31.7619 -31.7619 -31.7619 -31.7585
   -31.7049 -31.7049 -31.7049 -31.7026 -31.7026 -31.7026 -31.7003 -31.7003
    -8.3518  -8.2001  -8.2001  -8.2001   3.3142   3.3142   3.3142   3.4813
     6.6440   6.6440   6.6440   6.8921   6.8921   6.8922   7.0166   7.0166
    15.1563  15.6765  15.6765  15.6765  19.5996  19.5996

          k = 0.3945 0.3945-0.3945 (  8889 PWs)   bands (ev):

   -64.9370 -64.9361 -64.9361 -64.9361 -31.7619 -31.7619 -31.7619 -31.7585
   -31.7049 -31.7049 -31.7049 -31.7026 -31.7026 -31.7026 -31.7003 -31.7003
    -8.3518  -8.2001  -8.2001  -8.2001   3.3142   3.3142   3.3142   3.4813
     6.6440   6.6440   6.6440   6.8921   6.8921   6.8922   7.0166   7.0166
    15.1563  15.6765  15.6765  15.6765  19.5996  19.5996

          k = 0.3945 0.3945-0.1972 (  8876 PWs)   bands (ev):

   -64.9377 -64.9361 -64.9361 -64.9354 -31.7546 -31.7527 -31.7527 -31.7462
   -31.7180 -31.7125 -31.7125 -31.7051 -31.7045 -31.7035 -31.7035 -31.6984
    -8.5077  -8.2403  -8.2403  -8.1154   3.6987   3.7817   3.7817   4.0978
     5.7747   6.1702   6.1702   6.7086   6.7938   6.8312   6.8312   7.1194
    15.3537  16.3284  16.3284  16.7290  19.2524  19.4363

          k = 0.3945-0.3945 0.0000 (  8890 PWs)   bands (ev):

   -64.9380 -64.9361 -64.9361 -64.9351 -31.7441 -31.7441 -31.7440 -31.7367
   -31.7306 -31.7205 -31.7205 -31.7116 -31.7052 -31.7036 -31.7036 -31.6977
    -8.5741  -8.2648  -8.2648  -8.0928   4.2050   4.2050   4.2460   4.5811
     5.0447   5.7279   5.7279   6.3034   6.7568   6.8113   6.8113   7.1591
    15.6322  16.8928  16.8928  17.4478  18.8868  19.2621

          k = 0.3945-0.3945 0.1972 (  8876 PWs)   bands (ev):

   -64.9377 -64.9361 -64.9361 -64.9354 -31.7546 -31.7527 -31.7527 -31.7462
   -31.7180 -31.7125 -31.7125 -31.7051 -31.7045 -31.7035 -31.7035 -31.6984
    -8.5077  -8.2403  -8.2403  -8.1154   3.6987   3.7817   3.7817   4.0978
     5.7747   6.1702   6.1702   6.7086   6.7938   6.8312   6.8312   7.1194
    15.3537  16.3284  16.3284  16.7290  19.2524  19.4364

          k = 0.3945-0.3945 0.3945 (  8889 PWs)   bands (ev):

   -64.9370 -64.9361 -64.9361 -64.9361 -31.7619 -31.7619 -31.7619 -31.7585
   -31.7049 -31.7049 -31.7049 -31.7026 -31.7026 -31.7026 -31.7003 -31.7003
    -8.3518  -8.2001  -8.2001  -8.2001   3.3142   3.3142   3.3142   3.4813
     6.6440   6.6440   6.6440   6.8921   6.8921   6.8922   7.0166   7.0166
    15.1563  15.6765  15.6765  15.6765  19.5996  19.5996

          k = 0.3945-0.3945-0.3945 (  8889 PWs)   bands (ev):

   -64.9370 -64.9361 -64.9361 -64.9361 -31.7619 -31.7619 -31.7619 -31.7585
   -31.7049 -31.7049 -31.7049 -31.7026 -31.7026 -31.7026 -31.7003 -31.7003
    -8.3518  -8.2001  -8.2001  -8.2001   3.3142   3.3142   3.3142   3.4813
     6.6440   6.6440   6.6440   6.8921   6.8921   6.8922   7.0166   7.0166
    15.1563  15.6765  15.6765  15.6765  19.5996  19.5996

          k = 0.3945-0.3945-0.1972 (  8876 PWs)   bands (ev):

   -64.9377 -64.9361 -64.9361 -64.9354 -31.7546 -31.7527 -31.7527 -31.7462
   -31.7180 -31.7125 -31.7125 -31.7051 -31.7045 -31.7035 -31.7035 -31.6984
    -8.5077  -8.2403  -8.2403  -8.1154   3.6987   3.7817   3.7817   4.0978
     5.7747   6.1702   6.1702   6.7086   6.7938   6.8312   6.8312   7.1194
    15.3537  16.3284  16.3284  16.7290  19.2524  19.4364

          k = 0.3945-0.1972 0.0000 (  8869 PWs)   bands (ev):

   -64.9395 -64.9369 -64.9346 -64.9343 -31.7443 -31.7390 -31.7388 -31.7375
   -31.7277 -31.7245 -31.7132 -31.7124 -31.7122 -31.7065 -31.7045 -31.6983
    -8.8391  -8.4317  -8.0350  -7.9858   4.2392   4.4132   4.5658   4.6829
     5.2194   5.3147   6.2565   6.3732   6.3867   6.7231   6.8388   7.1794
    14.7295  16.2922  17.9821  18.2441  18.3136  18.5342

          k = 0.3945-0.1972 0.1972 (  8884 PWs)   bands (ev):

   -64.9390 -64.9367 -64.9348 -64.9348 -31.7495 -31.7495 -31.7448 -31.7334
   -31.7238 -31.7238 -31.7098 -31.7098 -31.7093 -31.7070 -31.7009 -31.6993
    -8.7448  -8.3738  -8.0507  -8.0507   3.9859   3.9859   4.1654   4.7679
     5.4408   5.4408   6.3944   6.5015   6.5015   6.7414   7.0505   7.0613
    14.8434  16.2270  17.4432  17.4432  19.1391  19.1392

          k = 0.3945-0.1972 0.3945 (  8876 PWs)   bands (ev):

   -64.9377 -64.9361 -64.9361 -64.9354 -31.7546 -31.7527 -31.7527 -31.7462
   -31.7180 -31.7125 -31.7125 -31.7051 -31.7045 -31.7035 -31.7035 -31.6984
    -8.5077  -8.2403  -8.2403  -8.1154   3.6987   3.7817   3.7817   4.0978
     5.7747   6.1702   6.1702   6.7086   6.7938   6.8312   6.8312   7.1194
    15.3537  16.3284  16.3284  16.7290  19.2524  19.4363

          k = 0.3945-0.1972-0.3945 (  8876 PWs)   bands (ev):

   -64.9377 -64.9361 -64.9361 -64.9354 -31.7546 -31.7527 -31.7527 -31.7462
   -31.7180 -31.7125 -31.7125 -31.7051 -31.7045 -31.7035 -31.7035 -31.6984
    -8.5077  -8.2403  -8.2403  -8.1154   3.6987   3.7817   3.7817   4.0978
     5.7747   6.1702   6.1702   6.7086   6.7938   6.8312   6.8312   7.1194
    15.3537  16.3284  16.3284  16.7290  19.2524  19.4364

          k = 0.3945-0.1972-0.1972 (  8884 PWs)   bands (ev):

   -64.9390 -64.9367 -64.9348 -64.9348 -31.7495 -31.7495 -31.7448 -31.7334
   -31.7238 -31.7238 -31.7098 -31.7098 -31.7093 -31.7070 -31.7009 -31.6993
    -8.7448  -8.3738  -8.0507  -8.0507   3.9859   3.9859   4.1654   4.7679
     5.4408   5.4408   6.3944   6.5015   6.5015   6.7414   7.0505   7.0613
    14.8434  16.2270  17.4432  17.4432  19.1391  19.1392

     the Fermi energy is     9.1338 ev

!    total energy              =    -608.51338590 Ry
     estimated scf accuracy    <          6.4E-10 Ry
     smearing contrib. (-TS)   =      -0.00000000 Ry
     internal energy E=F+TS    =    -608.51338590 Ry

     The total energy is F=E-TS. E is the sum of the following terms:
     one-electron contribution =    -305.41891694 Ry
     hartree contribution      =     168.72573302 Ry
     xc contribution           =     -97.81365963 Ry
     ewald contribution        =    -373.90344277 Ry
     DFT-D3 Dispersion         =      -0.10309957 Ry

     convergence has been achieved in  11 iterations

     Forces acting on atoms (cartesian axes, Ry/au):

     atom    1 type  1   force =    -0.00000002   -0.00000009    0.00000005
     atom    2 type  1   force =    -0.00000002   -0.00000007    0.00000001
     atom    3 type  1   force =     0.00000002   -0.00000000    0.00000002
     atom    4 type  1   force =     0.00000000    0.00000014   -0.00000007
     atom    5 type  2   force =     0.00000014    0.00000001    0.00000011
     atom    6 type  2   force =    -0.00000008   -0.00000017   -0.00000002
     atom    7 type  2   force =     0.00000000    0.00000007   -0.00000004
     atom    8 type  2   force =    -0.00000004    0.00000010   -0.00000007

     Total force =     0.000000     Total SCF correction =     0.000000
     SCF correction compared to forces is large: reduce conv_thr to get better values


     Computing stress (Cartesian axis) and pressure

          total   stress  (Ry/bohr**3)                   (kbar)     P=      -50.06
  -0.00034031  -0.00000000   0.00000000          -50.06       -0.00        0.00
  -0.00000000  -0.00034031   0.00000000           -0.00      -50.06        0.00
   0.00000000   0.00000000  -0.00034031            0.00        0.00      -50.06

 
     init_run     :      3.57s CPU      3.65s WALL (       2 calls)
     electrons    :    204.19s CPU    208.28s WALL (       5 calls)
     update_pot   :      1.26s CPU      1.27s WALL (       3 calls)
     forces       :     20.96s CPU     21.02s WALL (       5 calls)
     stress       :     25.98s CPU     26.06s WALL (       5 calls)

     Called by init_run:
     wfcinit      :      2.72s CPU      2.79s WALL (       2 calls)
     potinit      :      0.32s CPU      0.33s WALL (       2 calls)
     hinit0       :      0.49s CPU      0.50s WALL (       2 calls)

     Called by electrons:
     c_bands      :    162.37s CPU    165.79s WALL (      42 calls)
     sum_band     :     26.24s CPU     26.84s WALL (      42 calls)
     v_of_rho     :      0.40s CPU      0.41s WALL (      46 calls)
     mix_rho      :      0.06s CPU      0.06s WALL (      42 calls)

     Called by c_bands:
     init_us_2    :      1.78s CPU      1.89s WALL (    6048 calls)
     cegterg      :    156.60s CPU    159.60s WALL (    2646 calls)

     Called by *egterg:
     cdiaghg      :     16.25s CPU     16.36s WALL (    9446 calls)
     h_psi        :    129.51s CPU    132.36s WALL (    9824 calls)
     g_psi        :      0.44s CPU      0.44s WALL (    7052 calls)

     Called by h_psi:
     h_psi:calbec :      4.15s CPU      4.25s WALL (    9824 calls)
     vloc_psi     :    121.90s CPU    124.60s WALL (    9824 calls)
     add_vuspsi   :      3.00s CPU      3.06s WALL (    9824 calls)

     General routines
     calbec       :      7.50s CPU      7.62s WALL (   11399 calls)
     fft          :      1.37s CPU      1.38s WALL (     584 calls)
     ffts         :      0.02s CPU      0.02s WALL (      42 calls)
     fftw         :    139.37s CPU    142.44s WALL (  627584 calls)
 
     Parallel routines
     fft_scatt_xy :     16.79s CPU     17.18s WALL (  628210 calls)
     fft_scatt_yz :     79.84s CPU     81.55s WALL (  628210 calls)
 
     PWSCF        :   4m16.14s CPU   4m20.48s WALL

 
   This run was terminated on:  13:38:39   4Feb2024            

=------------------------------------------------------------------------------=
   JOB DONE.
=------------------------------------------------------------------------------=
