# total energy = -22452.0584458 eV	

CRYSTAL	
PRIMVEC	
		9.05300003		0.36211964		0.00000000	
		0.30707869		7.67700339		0.00000000	
		-0.52464221		-0.02098351		4.72194297	
PRIMCOORD
   40 1	
Ca		6.66634096		0.78402236		0.42544709		-0.00003178		 0.00007066		 0.00002680	
Ca		2.16909555		7.23411172		4.29649588		 0.00003178		-0.00007066		-0.00002680	
Ca		2.31933334		4.44249982		1.93552530		-0.00022911		-0.00034172		-0.00027094	
Ca		6.51610317		3.57563426		2.78641857		 0.00022911		 0.00034172		 0.00027094	
Mg		2.02968112		1.33896654		1.90388785		 0.00020079		 0.00009994		 0.00010405	
Mg		6.80575449		6.67916664		2.81805602		-0.00020079		-0.00009994		-0.00010405	
Mg		7.01532054		5.37075122		0.45708363		 0.00004571		-0.00027835		 0.00085103	
Mg		1.82011598		2.64738286		4.26485843		-0.00004571		 0.00027835		-0.00085103	
Si		4.43249460		1.44964280		2.18484315		-0.00000545		-0.00000677		 0.00027801	
Si		4.40294101		6.56849038		2.53709981		 0.00000545		 0.00000677		-0.00027801	
Si		4.61367401		5.28924803		0.17612833		-0.00019283		-0.00010850		-0.00026985	
Si		4.22176250		2.72888605		4.54581464		 0.00019283		 0.00010850		 0.00026985	
Si		0.41022226		6.56437703		1.24375973		 0.00050002		 0.00039359		-0.00083887	
Si		8.42521334		1.45375796		3.47818414		-0.00050002		-0.00039359		 0.00083887	
Si		8.75159306		3.06567326		1.11721175		 0.00000161		-0.00002185		-0.00010852	
Si		0.08384255		4.95246082		3.60473122		-0.00000161		 0.00002185		 0.00010852	
O		3.55692305		1.43991391		0.53310719		 0.00007037		 0.00010607		 0.00078719	
O		5.27851346		6.57822108		4.18883578		-0.00007037		-0.00010607		-0.00078719	
O		5.49127324		5.34964540		1.82786429		-0.00046127		-0.00012007		 0.00060852	
O		3.34416327		2.66848778		2.89407867		 0.00046127		 0.00012007		-0.00060852	
O		3.64582665		3.84865822		0.40467105		 0.00034363		 0.00016136		-0.00010240	
O		5.18960896		4.16947676		4.31727282		-0.00034363		-0.00016136		 0.00010240	
O		5.59509181		7.75898678		1.95630134		 0.00022862		 0.00040505		 0.00017182	
O		3.24034471		0.25914821		2.76564163		-0.00022862		-0.00040505		-0.00017182	
O		5.52101438		2.46813509		1.26217558		-0.00057040		 0.00028481		 0.00057049	
O		3.31442122		5.54999900		3.45976830		 0.00057040		-0.00028481		-0.00057049	
O		3.60327524		6.22378452		1.09879591		-0.00040591		-0.00013152		 0.00011433	
O		5.23216037		1.79434956		3.62314706		 0.00040591		 0.00013152		-0.00011433	
O		1.28427894		2.74628624		1.02371733		 0.00047683		-0.00013717		-0.00013653	
O		7.55115667		5.27184875		3.69822564		-0.00047683		 0.00013717		 0.00013653	
O		7.87587745		6.84230802		1.33725415		-0.00078456		-0.00006547		-0.00005818	
O		0.95955815		1.17582606		3.38468881		 0.00078456		 0.00006547		 0.00005818	
O		0.86083507		0.25594360		0.93636122		 0.00053441		-0.00000514		-0.00033229	
O		7.97460144		7.76218957		3.78558175		-0.00053441		 0.00000514		 0.00033229	
O		8.10113312		4.37791391		1.42461026		 0.00069494		 0.00053680		 0.00019866	
O		0.73430339		3.64022017		3.29733270		-0.00069494		-0.00053680		-0.00019866	
O		1.16079241		5.48071535		0.32817455		 0.00004910		 0.00028128		-0.00004328	
O		7.67464501		2.53741783		4.39376751		-0.00004910		-0.00028128		 0.00004328	
O		7.91178590		1.91839692		2.03279694		 0.00080975		 0.00018930		 0.00059871	
O		0.92364971		6.09973716		2.68914694		-0.00080975		-0.00018930		-0.00059871	
