# total energy = -22449.2469862 eV	

CRYSTAL	
PRIMVEC	
		9.05299733		0.72423797		0.00000000	
		0.61415598		7.67700422		0.00000000	
		-0.52464454		-0.04196757		4.72194620	
PRIMCOORD
   40 1	
Ca		6.68706914		1.04984672		0.42544724		-0.00061666		-0.00056704		-0.00038675	
Ca		2.45544781		7.30942155		4.29649624		 0.00061666		 0.00056704		 0.00038675	
Ca		2.49360096		4.52830325		1.93552495		 0.00017334		 0.00035311		-0.00016100	
Ca		6.64891507		3.83096593		2.78641852		-0.00017334		-0.00035311		 0.00016100	
Mg		2.08007284		1.41813868		1.90388807		 0.00002108		-0.00026014		 0.00010522	
Mg		7.06244319		6.94112958		2.81805631		-0.00002108		 0.00026014		-0.00010522	
Mg		7.21925259		5.64320650		0.45708412		 0.00003391		 0.00020298		 0.00011209	
Mg		1.92326436		2.71606177		4.26485936		-0.00003391		-0.00020298		-0.00011209	
Si		4.48347033		1.62490411		2.18484282		 0.00040014		 0.00009246		 0.00017240	
Si		4.65904570		6.73436507		2.53709974		-0.00040014		-0.00009246		-0.00017240	
Si		4.81818915		5.46561494		0.17612755		 0.00065936		 0.00047415		-0.00008014	
Si		4.32432688		2.89365424		4.54581501		-0.00065936		-0.00047415		 0.00008014	
Si		0.67256001		6.57029195		1.24376031		-0.00008781		 0.00020831		 0.00026347	
Si		8.46995603		1.78897722		3.47818407		 0.00008781		-0.00020831		-0.00026347	
Si		8.86039154		3.41138471		1.11721188		-0.00008634		 0.00007902		-0.00023644	
Si		0.28212541		4.94788356		3.60473068		 0.00008634		-0.00007902		 0.00023644	
O		3.60891109		1.58011115		0.53310708		-0.00017149		-0.00030960		-0.00001036	
O		5.53360494		6.77915802		4.18883549		 0.00017149		 0.00030960		 0.00001036	
O		5.69680166		5.56107595		1.82786420		 0.00003658		 0.00028034		-0.00014394	
O		3.44571529		2.79819323		2.89407927		-0.00003658		-0.00028034		 0.00014394	
O		3.79417779		3.98855728		0.40467143		 0.00073482		 0.00044121		 0.00094224	
O		5.34833916		4.37071190		4.31727295		-0.00073482		-0.00044121		-0.00094224	
O		5.89698178		7.97071453		1.95630076		-0.00013246		 0.00050394		-0.00012788	
O		3.24553426		0.38855374		2.76564180		 0.00013246		-0.00050394		 0.00012788	
O		5.61105104		2.68537486		1.26217572		-0.00041575		 0.00049701		-0.00003169	
O		3.53146499		5.67389432		3.45976775		 0.00041575		-0.00049701		 0.00003169	
O		3.84685112		6.35817183		1.09879556		-0.00002974		 0.00013668		-0.00016014	
O		5.29566582		2.00109553		3.62314701		 0.00002974		-0.00013668		 0.00016014	
O		1.39224794		2.79333804		1.02371711		 0.00032937		 0.00043980		 0.00018320	
O		7.75026810		5.56593114		3.69822636		-0.00032937		-0.00043980		-0.00018320	
O		8.13738689		7.14688328		1.33725417		 0.00000458		 0.00001170		 0.00025679	
O		1.00512914		1.21238590		3.38468930		-0.00000458		-0.00001170		-0.00025679	
O		0.86970858		0.29002214		0.93636082		-0.00036432		 0.00048935		-0.00043366	
O		8.27280654		8.06924613		3.78558174		 0.00036432		-0.00048935		 0.00043366	
O		8.26354752		4.69546331		1.42460955		-0.00032640		-0.00065737		-0.00033499	
O		0.87896942		3.66380587		3.29733301		 0.00032640		 0.00065737		 0.00033499	
O		1.37851062		5.51843904		0.32817530		-0.00017364		-0.00000831		 0.00052347	
O		7.76400451		2.84083014		4.39376818		 0.00017364		 0.00000831		-0.00052347	
O		7.97596570		2.23230132		2.03279689		-0.00012079		-0.00057942		-0.00033528	
O		1.16655034		6.12696695		2.68914658		 0.00012079		 0.00057942		 0.00033528	
