# total energy = -20636.5835603 eV	

CRYSTAL	
PRIMVEC	
		11.05499961		0.00000000		0.00000000	
		0.00000000		5.75000378		0.00000000	
		0.00000000		0.00000000		4.87000370	
PRIMCOORD
   28 1	
Si		3.68131487		0.00000000		4.37666882		-0.00002255		0.00000000		-0.00046208	
Si		7.37368474		0.00000000		0.49333046		 0.00002255		0.00000000		 0.00046208	
Si		9.20881467		2.87499968		4.37666882		-0.00002252		-0.00000000		-0.00045938	
Si		1.84618493		2.87499968		0.49333046		 0.00002252		-0.00000000		 0.00045938	
Mg		0.00000000		0.00000000		0.00000000		0.00000000		0.00000000		0.00000000	
Mg		5.52749980		2.87499968		0.00000000		0.00000000		0.00000000		0.00000000	
Mg		5.52749980		0.00000000		2.43499964		0.00000000		0.00000000		0.00000000	
Mg		0.00000000		2.87499968		2.43499964		0.00000000		0.00000000		0.00000000	
Mg		2.76374990		1.43750039		2.43499964		 0.00001114		 0.00000275		-0.00000283	
Mg		8.29124971		4.31250007		2.43499964		-0.00001114		-0.00000275		 0.00000283	
Mg		8.29124971		1.43750039		2.43499964		-0.00001114		 0.00000275		 0.00000283	
Mg		2.76374990		4.31250007		2.43499964		 0.00001114		-0.00000275		-0.00000283	
O		9.05846668		0.00000000		1.08114027		-0.00036357		-0.00000000		-0.00000689	
O		1.99653293		0.00000000		3.78886012		 0.00036357		-0.00000000		 0.00000689	
O		3.53096688		2.87499968		1.08114027		-0.00035827		0.00000000		-0.00001607	
O		7.52403273		2.87499968		3.78886012		 0.00035827		0.00000000		 0.00001607	
O		3.69347537		0.00000000		1.14591151		-0.00001529		-0.00000000		-0.00067905	
O		7.36152424		0.00000000		3.72408887		 0.00001529		-0.00000000		 0.00067905	
O		9.22097517		2.87499968		1.14591151		-0.00002098		0.00000000		-0.00067750	
O		1.83402444		2.87499968		3.72408887		 0.00002098		0.00000000		 0.00067750	
O		1.00379396		1.55422461		1.09721092		 0.00013004		-0.00031250		-0.00025555	
O		10.05120564		4.19577475		3.77278836		-0.00013004		 0.00031250		 0.00025555	
O		10.05120564		1.55422461		3.77278836		-0.00013004		-0.00031250		 0.00025555	
O		1.00379396		4.19577475		1.09721092		 0.00013004		 0.00031250		-0.00025555	
O		6.53129377		4.42922539		1.09721092		 0.00011833		-0.00030972		-0.00025748	
O		4.52370584		1.32077507		3.77278836		-0.00011833		 0.00030972		 0.00025748	
O		4.52370584		4.42922539		3.77278836		-0.00011833		-0.00030972		 0.00025748	
O		6.53129377		1.32077507		1.09721092		 0.00011833		 0.00030972		-0.00025748	
