# total energy = -20636.1540382 eV	

CRYSTAL	
PRIMVEC	
		9.79874987		0.00000000		0.00000000	
		0.00000000		5.75000441		0.00000000	
		0.00000000		0.00000000		4.86999828	
PRIMCOORD
   28 1	
Si		3.26298371		0.00000000		4.37666846		 0.00012156		0.00000000		 0.00002418	
Si		6.53576616		0.00000000		0.49333080		-0.00012156		0.00000000		-0.00002418	
Si		8.16235864		2.87500025		4.37666846		 0.00012111		0.00000000		 0.00002247	
Si		1.63639123		2.87500025		0.49333080		-0.00012111		0.00000000		-0.00002247	
Mg		0.00000000		0.00000000		0.00000000		0.00000000		0.00000000		0.00000000	
Mg		4.89937494		2.87500025		0.00000000		0.00000000		0.00000000		0.00000000	
Mg		4.89937494		0.00000000		2.43500012		0.00000000		0.00000000		0.00000000	
Mg		0.00000000		2.87500025		2.43500012		0.00000000		0.00000000		0.00000000	
Mg		2.44968845		1.43750012		2.43500012		 0.00000016		 0.00000011		-0.00000017	
Mg		7.34906338		4.31250037		2.43500012		-0.00000016		-0.00000011		 0.00000017	
Mg		7.34906338		1.43750012		2.43500012		-0.00000016		 0.00000011		 0.00000017	
Mg		2.44968845		4.31250037		2.43500012		 0.00000016		-0.00000011		-0.00000017	
O		8.02909564		0.00000000		1.08114017		 0.00024484		0.00000000		-0.00022445	
O		1.76965423		0.00000000		3.78886008		-0.00024484		0.00000000		 0.00022445	
O		3.12972071		2.87500025		1.08114017		 0.00024455		-0.00000000		-0.00022470	
O		6.66902916		2.87500025		3.78886008		-0.00024455		0.00000000		 0.00022470	
O		3.27376331		0.00000000		1.14591088		 0.00020120		0.00000000		 0.00008758	
O		6.52498754		0.00000000		3.72408936		-0.00020120		0.00000000		-0.00008758	
O		8.17313825		2.87500025		1.14591088		 0.00020132		0.00000000		 0.00008851	
O		1.62561260		2.87500025		3.72408936		-0.00020132		0.00000000		-0.00008851	
O		0.88972747		1.55422479		1.09721110		 0.00021981		-0.00032375		 0.00018867	
O		8.90902436		4.19577472		3.77278915		-0.00021981		 0.00032375		-0.00018867	
O		8.90902436		1.55422479		3.77278915		-0.00021981		-0.00032375		-0.00018867	
O		0.88972747		4.19577472		1.09721110		 0.00021981		 0.00032375		 0.00018867	
O		5.78910044		4.42922504		1.09721110		 0.00021950		-0.00032410		 0.00018862	
O		4.00964943		1.32077545		3.77278915		-0.00021950		 0.00032410		-0.00018862	
O		4.00964943		4.42922504		3.77278915		-0.00021950		-0.00032410		-0.00018862	
O		5.78910044		1.32077545		1.09721110		 0.00021950		 0.00032410		 0.00018862	
