# total energy = -20635.36518 eV	

CRYSTAL	
PRIMVEC	
		9.54749971		0.00000000		0.00000000	
		0.00000000		5.75000080		0.00000000	
		0.00000000		0.00000000		4.86999820	
PRIMCOORD
   28 1	
Si		3.17931836		0.00000000		4.37666934		-0.00001277		0.00000000		 0.00003440	
Si		6.36818326		0.00000000		0.49333077		 0.00001277		0.00000000		-0.00003440	
Si		7.95306821		2.87499944		4.37666934		-0.00001523		0.00000000		 0.00003340	
Si		1.59443150		2.87499944		0.49333077		 0.00001523		0.00000000		-0.00003340	
Mg		0.00000000		0.00000000		0.00000000		0.00000000		0.00000000		0.00000000	
Mg		4.77374986		2.87499944		0.00000000		0.00000000		0.00000000		0.00000000	
Mg		4.77374986		0.00000000		2.43500005		0.00000000		0.00000000		0.00000000	
Mg		0.00000000		2.87499944		2.43500005		0.00000000		0.00000000		0.00000000	
Mg		2.38687493		1.43750020		2.43500005		 0.00000055		 0.00000023		-0.00000010	
Mg		7.16062478		4.31249964		2.43500005		-0.00000055		-0.00000023		 0.00000010	
Mg		7.16062478		1.43750020		2.43500005		-0.00000055		 0.00000023		 0.00000010	
Mg		2.38687493		4.31249964		2.43500005		 0.00000055		-0.00000023		-0.00000010	
O		7.82322222		0.00000000		1.08113977		 0.00047549		0.00000000		-0.00045092	
O		1.72427749		0.00000000		3.78886034		-0.00047549		0.00000000		 0.00045092	
O		3.04947236		2.87499944		1.08113977		 0.00047418		0.00000000		-0.00045097	
O		6.49802926		2.87499944		3.78886034		-0.00047418		0.00000000		 0.00045097	
O		3.18981965		0.00000000		1.14591097		 0.00050298		-0.00000000		 0.00039275	
O		6.35768006		0.00000000		3.72408914		-0.00050298		-0.00000000		-0.00039275	
O		7.96356951		2.87499944		1.14591097		 0.00050396		0.00000000		 0.00039368	
O		1.58393020		2.87499944		3.72408914		-0.00050396		0.00000000		-0.00039368	
O		0.86691297		1.55422507		1.09721108		 0.00046191		-0.00076075		 0.00014689	
O		8.68058674		4.19577477		3.77278903		-0.00046191		 0.00076075		-0.00014689	
O		8.68058674		1.55422507		3.77278903		-0.00046191		-0.00076075		-0.00014689	
O		0.86691297		4.19577477		1.09721108		 0.00046191		 0.00076075		 0.00014689	
O		5.64066283		4.42922451		1.09721108		 0.00046230		-0.00076039		 0.00014687	
O		3.90683688		1.32077533		3.77278903		-0.00046230		 0.00076039		-0.00014687	
O		3.90683688		4.42922451		3.77278903		-0.00046230		-0.00076039		-0.00014687	
O		5.64066283		1.32077533		1.09721108		 0.00046230		 0.00076039		 0.00014687	
