# total energy = -18356.7696356 eV

CRYSTAL
PRIMVEC
		4.81499975		0.00000000		0.00000000
		0.00000000		11.07999815		0.00000000
		0.00000000		0.00000000		5.89225001
PRIMECORD
   28 1
Mg		0.00000000		0.00000000		0.00000000		0.00000000		-0.00000000		0.00000000
Mg		2.40749987		5.53999956		0.00000000		0.00000000		0.00000000		-0.00000000
Mg		0.00000000		0.00000000		2.94612501		-0.00000000		0.00000000		-0.00000000
Mg		2.40749987		5.53999956		2.94612501		-0.00000000		0.00000000		-0.00000000
Ca		4.73314475		2.84756003		1.47306202		 0.00062674		-0.00012056		-0.00000000
Ca		0.08185500		8.23243956		4.41918655		-0.00062674		 0.00012056		-0.00000000
Ca		2.32564488		2.69244000		4.41918655		 0.00062674		 0.00012056		0.00000000
Ca		2.48935487		8.38755959		1.47306202		-0.00062674		-0.00012056		0.00000000
Si		1.94044490		0.95287978		1.47306202		-0.00003110		-0.00033212		0.00000000
Si		2.87455485		10.12711933		4.41918655		 0.00003110		 0.00033212		0.00000000
Si		4.34794477		4.58711977		4.41918655		-0.00003110		 0.00033212		0.00000000
Si		0.46705498		6.49287982		1.47306202		 0.00003110		-0.00033212		0.00000000
O		3.67865981		0.74235981		1.47306202		-0.00030977		-0.00029795		0.00000000
O		1.13633994		10.33763930		4.41918655		 0.00030977		 0.00029795		0.00000000
O		1.27115993		4.79763975		4.41918655		-0.00030977		 0.00029795		0.00000000
O		3.54383981		6.28235985		1.47306202		 0.00030977		-0.00029795		0.00000000
O		3.54383981		5.14111968		1.47306202		-0.00035213		 0.00029328		0.00000000
O		1.27115993		5.93887991		4.41918655		 0.00035213		-0.00029328		0.00000000
O		1.13633994		0.39887988		4.41918655		-0.00035213		-0.00029328		0.00000000
O		3.67865981		10.68111924		1.47306202		 0.00035213		 0.00029328		0.00000000
O		1.20374994		1.69524007		0.17676683		-0.00013963		 0.00022519		 0.00044258
O		3.61124981		9.38475952		5.71548270		 0.00013963		-0.00022519		-0.00044258
O		3.61124981		3.84475996		5.71548270		-0.00013963		-0.00022519		-0.00044258
O		1.20374994		7.23523963		0.17676683		 0.00013963		 0.00022519		 0.00044258
O		3.61124981		9.38475952		3.12289183		 0.00013963		-0.00022519		 0.00044258
O		1.20374994		1.69524007		2.76935673		-0.00013963		 0.00022519		-0.00044258
O		1.20374994		7.23523963		2.76935673		 0.00013963		 0.00022519		-0.00044258
O		3.61124981		3.84475996		3.12289183		-0.00013963		-0.00022519		 0.00044258
