# total energy = -18385.8724507 eV

CRYSTAL
PRIMVEC
		4.81499975		0.00000000		0.00000000
		0.00000000		11.07999815		0.00000000
		0.00000000		0.00000000		6.52925040
PRIMECORD
   28 1
Mg		0.00000000		0.00000000		0.00000000		0.00000000		0.00000000		0.00000000
Mg		2.40749987		5.53999956		0.00000000		0.00000000		0.00000000		0.00000000
Mg		0.00000000		0.00000000		3.26462472		0.00000000		-0.00000000		0.00000000
Mg		2.40749987		5.53999956		3.26462472		0.00000000		0.00000000		0.00000000
Ca		4.73314475		2.84756003		1.63231188		 0.00054910		 0.00014928		0.00000000
Ca		0.08185500		8.23243956		4.89693660		-0.00054910		-0.00014928		0.00000000
Ca		2.32564488		2.69244000		4.89693660		 0.00054910		-0.00014928		-0.00000000
Ca		2.48935487		8.38755959		1.63231188		-0.00054910		 0.00014928		-0.00000000
Si		1.94044490		0.95287978		1.63231188		-0.00080040		 0.00067871		0.00000000
Si		2.87455485		10.12711933		4.89693660		 0.00080040		-0.00067871		0.00000000
Si		4.34794477		4.58711977		4.89693660		-0.00080040		-0.00067871		-0.00000000
Si		0.46705498		6.49287982		1.63231188		 0.00080040		 0.00067871		-0.00000000
O		3.67865981		0.74235981		1.63231188		-0.00028944		-0.00058364		0.00000000
O		1.13633994		10.33763930		4.89693660		 0.00028944		 0.00058364		0.00000000
O		1.27115993		4.79763975		4.89693660		-0.00028944		 0.00058364		0.00000000
O		3.54383981		6.28235985		1.63231188		 0.00028944		-0.00058364		0.00000000
O		3.54383981		5.14111968		1.63231188		 0.00086098		-0.00046379		-0.00000000
O		1.27115993		5.93887991		4.89693660		-0.00086098		 0.00046379		-0.00000000
O		1.13633994		0.39887988		4.89693660		 0.00086098		 0.00046379		0.00000000
O		3.67865981		10.68111924		1.63231188		-0.00086098		-0.00046379		0.00000000
O		1.20374994		1.69524007		0.19587708		 0.00043401		 0.00035560		 0.00004426
O		3.61124981		9.38475952		6.33337284		-0.00043401		-0.00035560		-0.00004426
O		3.61124981		3.84475996		6.33337284		 0.00043401		-0.00035560		-0.00004426
O		1.20374994		7.23523963		0.19587708		-0.00043401		 0.00035560		 0.00004426
O		3.61124981		9.38475952		3.46050180		-0.00043401		-0.00035560		 0.00004426
O		1.20374994		1.69524007		3.06874668		 0.00043401		 0.00035560		-0.00004426
O		1.20374994		7.23523963		3.06874668		-0.00043401		 0.00035560		-0.00004426
O		3.61124981		3.84475996		3.46050180		 0.00043401		-0.00035560		 0.00004426
