# total energy = -18390.8256739 eV

CRYSTAL
PRIMVEC
		4.81499975		0.00000000		0.00000000
		0.00000000		11.07999815		0.00000000
		0.00000000		0.00000000		6.68850170
PRIMECORD
   28 1
Mg		0.00000000		0.00000000		0.00000000		0.00000000		0.00000000		0.00000000
Mg		2.40749987		5.53999956		0.00000000		0.00000000		-0.00000000		-0.00000000
Mg		0.00000000		0.00000000		3.34424989		0.00000000		-0.00000000		0.00000000
Mg		2.40749987		5.53999956		3.34424989		0.00000000		-0.00000000		-0.00000000
Ca		4.73314475		2.84756003		1.67212470		 0.00055360		 0.00063367		-0.00000000
Ca		0.08185500		8.23243956		5.01637459		-0.00055360		-0.00063367		0.00000000
Ca		2.32564488		2.69244000		5.01637459		 0.00055360		-0.00063367		-0.00000000
Ca		2.48935487		8.38755959		1.67212470		-0.00055360		 0.00063367		-0.00000000
Si		1.94044490		0.95287978		1.67212470		-0.00053260		-0.00015422		0.00000000
Si		2.87455485		10.12711933		5.01637459		 0.00053260		 0.00015422		0.00000000
Si		4.34794477		4.58711977		5.01637459		-0.00053260		 0.00015422		0.00000000
Si		0.46705498		6.49287982		1.67212470		 0.00053260		-0.00015422		0.00000000
O		3.67865981		0.74235981		1.67212470		 0.00047437		 0.00003386		0.00000000
O		1.13633994		10.33763930		5.01637459		-0.00047437		-0.00003386		-0.00000000
O		1.27115993		4.79763975		5.01637459		 0.00047437		-0.00003386		0.00000000
O		3.54383981		6.28235985		1.67212470		-0.00047437		 0.00003386		-0.00000000
O		3.54383981		5.14111968		1.67212470		 0.00004927		-0.00048988		-0.00000000
O		1.27115993		5.93887991		5.01637459		-0.00004927		 0.00048988		0.00000000
O		1.13633994		0.39887988		5.01637459		 0.00004927		 0.00048988		0.00000000
O		3.67865981		10.68111924		1.67212470		-0.00004927		-0.00048988		0.00000000
O		1.20374994		1.69524007		0.20065500		 0.00060029		-0.00067694		 0.00070973
O		3.61124981		9.38475952		6.48784477		-0.00060029		 0.00067694		-0.00070973
O		3.61124981		3.84475996		6.48784477		 0.00060029		 0.00067694		-0.00070973
O		1.20374994		7.23523963		0.20065500		-0.00060029		-0.00067694		 0.00070973
O		3.61124981		9.38475952		3.54490489		-0.00060029		 0.00067694		 0.00070973
O		1.20374994		1.69524007		3.14359489		 0.00060029		-0.00067694		-0.00070973
O		1.20374994		7.23523963		3.14359489		-0.00060029		-0.00067694		-0.00070973
O		3.61124981		3.84475996		3.54490489		 0.00060029		 0.00067694		 0.00070973
