# total energy = -18389.7977026 eV

CRYSTAL
PRIMVEC
		4.81499975		0.00000000		0.00000000
		0.00000000		11.07999815		0.00000000
		0.00000000		0.00000000		7.00699949
PRIMECORD
   28 1
Mg		0.00000000		0.00000000		0.00000000		0.00000000		0.00000000		0.00000000
Mg		2.40749987		5.53999956		0.00000000		0.00000000		0.00000000		-0.00000000
Mg		0.00000000		0.00000000		3.50349975		0.00000000		0.00000000		-0.00000000
Mg		2.40749987		5.53999956		3.50349975		0.00000000		0.00000000		-0.00000000
Ca		4.73314475		2.84756003		1.75174987		 0.00005295		 0.00023349		0.00000000
Ca		0.08185500		8.23243956		5.25524962		-0.00005295		-0.00023349		-0.00000000
Ca		2.32564488		2.69244000		5.25524962		 0.00005295		-0.00023349		0.00000000
Ca		2.48935487		8.38755959		1.75174987		-0.00005295		 0.00023349		-0.00000000
Si		1.94044490		0.95287978		1.75174987		-0.00088357		-0.00007275		-0.00000000
Si		2.87455485		10.12711933		5.25524962		 0.00088357		 0.00007275		0.00000000
Si		4.34794477		4.58711977		5.25524962		-0.00088357		 0.00007275		0.00000000
Si		0.46705498		6.49287982		1.75174987		 0.00088357		-0.00007275		-0.00000000
O		3.67865981		0.74235981		1.75174987		 0.00016719		 0.00020653		0.00000000
O		1.13633994		10.33763930		5.25524962		-0.00016719		-0.00020653		0.00000000
O		1.27115993		4.79763975		5.25524962		 0.00016719		-0.00020653		0.00000000
O		3.54383981		6.28235985		1.75174987		-0.00016719		 0.00020653		0.00000000
O		3.54383981		5.14111968		1.75174987		 0.00025504		 0.00085448		0.00000000
O		1.27115993		5.93887991		5.25524962		-0.00025504		-0.00085448		0.00000000
O		1.13633994		0.39887988		5.25524962		 0.00025504		-0.00085448		0.00000000
O		3.67865981		10.68111924		1.75174987		-0.00025504		 0.00085448		0.00000000
O		1.20374994		1.69524007		0.21020989		 0.00062507		-0.00079889		 0.00041844
O		3.61124981		9.38475952		6.79678960		-0.00062507		 0.00079889		-0.00041844
O		3.61124981		3.84475996		6.79678960		 0.00062507		 0.00079889		-0.00041844
O		1.20374994		7.23523963		0.21020989		-0.00062507		-0.00079889		 0.00041844
O		3.61124981		9.38475952		3.71370963		-0.00062507		 0.00079889		 0.00041844
O		1.20374994		1.69524007		3.29328986		 0.00062507		-0.00079889		-0.00041844
O		1.20374994		7.23523963		3.29328986		-0.00062507		-0.00079889		-0.00041844
O		3.61124981		3.84475996		3.71370963		 0.00062507		 0.00079889		 0.00041844
