# total energy = -9075.00379789 eV	

CRYSTAL	
PRIMVEC	
		5.39649365		0.00006647		0.00396777	
		0.00007158		5.39384507		0.00000000	
		0.00118113		0.00000000		7.64964767	
PRIMCOORD
   28 1	
Mg		4.06231609		2.73707111		1.92168913		-0.00007867		 0.00029746		-0.00046002	
Mg		1.33539551		0.04011227		5.73192478		 0.00008358		 0.00029914		 0.00046117	
Si		1.36691981		0.04790259		1.90483942		 0.00022529		 0.00006383		 0.00017935	
Si		4.03079689		2.74485836		5.74877244		-0.00023675		 0.00007205		-0.00016795	
O		1.88383685		5.23592697		3.64858704		 0.00020842		 0.00035039		 0.00036714	
O		3.51402661		2.53915374		4.00504374		-0.00050496		-0.00011622		-0.00042656	
O		4.58019489		2.88038210		7.48262928		 0.00014294		 0.00031804		 0.00012292	
O		0.81741086		0.18356029		0.17097593		 0.00024542		-0.00022029		-0.00009090	
O		4.82343171		4.32246960		5.35929943		-0.00035666		-0.00006181		 0.00013115	
O		0.57428090		1.62544480		2.29432317		 0.00050998		 0.00011153		-0.00016465	
O		2.43314435		3.63655847		6.12198222		 0.00032311		-0.00008458		-0.00009106	
O		2.96465417		0.93960014		1.53164396		-0.00054451		 0.00007506		 0.00004767	
O		5.18404741		4.56363765		2.32100793		-0.00028526		-0.00004323		 0.00007922	
O		0.21370457		1.86665376		5.33260598		 0.00031388		-0.00004970		-0.00007926	
O		2.20881935		3.87387790		1.48081514		-0.00022709		 0.00017882		-0.00025072	
O		3.18892701		1.17696763		6.17279877		 0.00021606		 0.00017736		 0.00024893	
H		2.39912127		4.41018994		3.72124317		 0.00033041		-0.00029141		-0.00012357	
H		2.99855658		1.71315390		3.93236051		-0.00005002		 0.00014525		 0.00016053	
H		5.13826471		3.68052857		7.50989284		-0.00009319		-0.00054943		-0.00009022	
H		0.25957573		0.98340407		0.14372669		-0.00026680		-0.00004769		 0.00007447	
H		1.73134784		2.97570818		5.92850763		 0.00002016		-0.00020822		-0.00014926	
H		3.66632234		0.27885416		1.72509401		 0.00015844		-0.00037525		 0.00019651	
H		4.20403946		5.05687541		5.57318910		 0.00007275		 0.00001069		 0.00027661	
H		1.19377184		2.35995441		2.08041305		-0.00020864		-0.00014454		-0.00023143	
H		5.11289965		4.59774408		3.29731911		 0.00016962		-0.00026853		 0.00012166	
H		0.28486359		1.90075865		4.35629684		-0.00017291		-0.00026610		-0.00012416	
H		2.23435571		3.79500986		0.50146985		 0.00047936		 0.00031134		 0.00002946	
H		3.16338401		1.09809653		7.15214968		-0.00047396		 0.00031603		-0.00004704	
