# total energy = -9075.46669646 eV	

CRYSTAL	
PRIMVEC	
		4.98266490		-0.00004090		0.00636070	
		-0.00004090		5.04910452		0.00000000	
		0.00530228		0.00000000		7.16042626	
PRIMCOORD
   28 1	
Mg		3.74967558		2.56620869		1.80503324		-0.00003439		-0.00011903		 0.00022227	
Mg		1.23826706		0.04167637		5.36175372		 0.00003176		-0.00011831		-0.00022332	
Si		1.25488514		0.03959687		1.78631776		-0.00009808		-0.00032211		 0.00029960	
Si		3.73305545		2.56412919		5.38047124		 0.00010472		-0.00032614		-0.00030698	
O		1.88941115		4.85575264		3.43956657		-0.00000128		-0.00018873		 0.00027029	
O		3.09845582		2.33111448		3.72720913		 0.00013372		 0.00007827		-0.00023348	
O		4.38158112		2.75494957		7.03066652		-0.00005576		 0.00026837		-0.00023067	
O		0.60640242		0.23034618		0.13612811		-0.00009845		 0.00055707		 0.00020349	
O		4.41772818		4.12869231		4.90864664		-0.00000555		 0.00024367		-0.00018394	
O		0.57020218		1.60418658		2.25813571		-0.00004268		 0.00019320		 0.00019853	
O		2.16894586		3.34940012		5.86204142		 0.00064229		-0.00035882		-0.00032106	
O		2.81895945		0.82485655		1.30473940		-0.00055788		-0.00040306		 0.00034082	
O		4.68949712		4.31157563		2.28419463		 0.00015552		-0.00006371		 0.00024532	
O		0.29842455		1.78705813		4.88258721		-0.00018213		-0.00006056		-0.00022926	
O		1.96734758		3.52653171		1.30149974		 0.00065371		 0.00031019		-0.00017251	
O		3.02057563		1.00197127		5.86528875		-0.00064143		 0.00030916		 0.00016511	
H		2.31800961		3.97616802		3.51536982		-0.00038287		-0.00016035		-0.00002563	
H		2.66994479		1.45168019		3.65142276		 0.00026113		-0.00039404		 0.00000492	
H		4.83008641		3.62598560		7.07581519		-0.00031150		 0.00035996		 0.00052342	
H		0.15779845		1.10154430		0.09096716		 0.00045075		 0.00010678		-0.00050984	
H		1.46354718		2.71758764		5.53750682		-0.00039840		 0.00036590		 0.00008487	
H		3.52440824		0.19300572		1.62928627		 0.00034366		 0.00041490		-0.00010825	
H		3.83485472		4.87178630		5.25475136		 0.00011115		 0.00014279		-0.00000311	
H		1.15303986		2.34724478		1.91204020		-0.00007707		 0.00018389		-0.00001569	
H		4.59883010		4.33705369		3.27754368		-0.00019865		-0.00041283		-0.00022285	
H		0.38908237		1.81253671		3.88924634		 0.00020170		-0.00041362		 0.00021139	
H		2.01302648		3.44004772		0.29984651		 0.00001688		-0.00009471		 0.00019089	
H		2.97490287		0.91548881		6.86693534		-0.00002089		-0.00009811		-0.00017437	
