# total energy = -22451.9918421 eV

CRYSTAL
PRIMVEC
		9.05300002		0.00000000		0.00000000
		0.00000000		7.67699834		-0.30707776
		-0.52464851		-0.18888179		4.72194523
PRIMECORD
   40 1
Ca		6.64561268		0.50118042		0.40471889		 0.00030416		-0.00012922		 0.00019219
Ca		1.88274336		6.98694337		4.01014405		-0.00030416		 0.00012922		-0.00019219
Ca		2.14506490		4.27927707		1.76125663		-0.00032856		 0.00044655		-0.00012042
Ca		6.38329114		3.20884582		2.65360722		 0.00032856		-0.00044655		 0.00012042
Mg		1.97928999		1.18363992		1.85349583		-0.00022984		 0.00005631		 0.00018255
Mg		6.54906696		6.30448206		2.56136711		 0.00022984		-0.00005631		-0.00018255
Mg		6.81138940		5.08001220		0.25315176		-0.00036023		-0.00059102		-0.00047922
Mg		1.71696845		2.40810977		4.16171119		 0.00036023		 0.00059102		 0.00047922
Si		4.38151984		1.18698772		2.13386815		-0.00008996		-0.00021419		-0.00011383
Si		4.14683711		6.30113426		2.28099479		 0.00008996		 0.00021419		 0.00011383
Si		4.40915865		5.10583679		-0.02838659		-0.00003904		 0.00032357		-0.00012777
Si		4.11919830		2.38228519		4.44325043		 0.00003904		-0.00032357		 0.00012777
Si		0.14788438		6.50871140		0.98142125		 0.00021381		 0.00004190		-0.00057014
Si		8.38047347		0.97941058		3.43344169		-0.00021381		-0.00004190		 0.00057014
Si		8.64279501		2.67527286		1.00841277		-0.00011422		 0.00032669		 0.00021223
Si		-0.11443807		4.81285002		3.40645017		 0.00011422		-0.00032669		-0.00021223
O		3.50493414		1.27839224		0.48111897		 0.00006822		-0.00066909		 0.00062635
O		5.02342190		6.20972974		3.93374397		-0.00006822		 0.00066909		-0.00062635
O		5.28574434		5.06510191		1.62233563		-0.00035125		 0.00045624		 0.00038990
O		3.24261170		2.42302097		2.79252822		 0.00035125		-0.00045624		-0.00038990
O		3.49747718		3.69257205		0.25632031		 0.00000540		 0.00028357		-0.00016871
O		5.03087976		3.79554993		4.15854264		-0.00000540		-0.00028357		 0.00016871
O		5.29320220		7.46900657		1.65441131		 0.00038817		 0.00060605		 0.00012692
O		3.23515474		0.01911631		2.76045163		-0.00038817		-0.00060605		-0.00012692
O		5.43097891		2.20040861		1.17213989		 0.00043537		-0.00013405		-0.00023207
O		3.09737713		5.28771337		3.24272395		-0.00043537		 0.00013405		 0.00023207
O		3.35969867		6.04544495		0.85521971		 0.00056247		 0.00043439		-0.00005248
O		5.16865737		1.44267794		3.55964323		-0.00056247		-0.00043439		 0.00005248
O		1.17630971		2.65828400		0.91574807		-0.00026454		 0.00021018		 0.00043747
O		7.35204724		4.82983798		3.49911487		 0.00026454		-0.00021018		-0.00043747
O		7.61436878		6.48424295		1.07574536		-0.00023118		-0.00081389		-0.00087234
O		0.91398817		1.00387902		3.33911758		 0.00023118		 0.00081389		 0.00087234
O		0.85195973		0.18441142		0.92748709		-0.00032672		 0.00064089		-0.00016886
O		7.67639631		7.30371146		3.48737675		 0.00032672		-0.00064089		 0.00016886
O		7.93871785		4.00338146		1.26219642		 0.00017258		 0.00037290		 0.00005488
O		0.58963819		3.48474142		3.15266833		-0.00017258		-0.00037290		-0.00005488
O		0.94307183		5.42986629		0.11045475		-0.00002614		-0.00027668		-0.00004698
O		7.58528420		2.05825568		4.30440819		 0.00002614		 0.00027668		 0.00004698
O		7.84760574		1.52318083		1.96861740		 0.00009970		-0.00058131		 0.00025909
O		0.68075029		5.96494114		2.44624644		-0.00009970		 0.00058131		-0.00025909
