# total energy = -22436.9863498 eV

CRYSTAL
PRIMVEC
		9.05300002		0.00000000		0.00000000
		0.00000000		7.67699834		1.22832010
		-0.52464851		0.75550906		4.72194523
PRIMECORD
   40 1
Ca		6.64561268		0.58626866		0.50835945		-0.00027576		-0.00067908		-0.00019973
Ca		1.88274336		7.84624236		5.44190497		 0.00027576		 0.00067908		 0.00019973
Ca		2.14506490		4.66638063		2.63259611		 0.00049507		-0.00033048		 0.00004286
Ca		6.38329114		3.76613039		3.31766740		-0.00049507		 0.00033048		-0.00004286
Mg		1.97928999		1.56441815		2.10545531		 0.00010894		 0.00008438		 0.00009691
Mg		6.54906696		6.86809287		3.84480820		-0.00010894		-0.00008438		-0.00009691
Mg		6.81138940		5.17142940		1.27281106		-0.00069466		-0.00018448		 0.00004875
Mg		1.71696845		3.26108163		4.67745245		 0.00069466		 0.00018448		-0.00004875
Si		4.38151984		1.62395702		2.38874360		 0.00037349		 0.00042382		-0.00042276
Si		4.14683711		6.80855400		3.56151901		-0.00037349		-0.00042382		 0.00042276
Si		4.40915865		5.14106292		0.99418960		-0.00006905		 0.00036733		-0.00036903
Si		4.11919830		3.29144810		4.95607391		 0.00006905		-0.00036733		 0.00036903
Si		0.14788438		6.75746340		2.29311404		-0.00005629		 0.00021323		 0.00028158
Si		8.38047347		1.67504762		3.65715038		 0.00005629		-0.00021323		-0.00028158
Si		8.64279501		2.89871538		1.55240573		 0.00020411		 0.00060386		-0.00015640
Si		-0.11443807		5.53379564		4.39785779		-0.00020411		-0.00060386		 0.00015640
O		3.50493414		1.38501304		0.74106229		 0.00036637		-0.00032167		 0.00038026
O		5.02342190		7.04749798		5.20920123		-0.00036637		 0.00032167		-0.00038026
O		5.28574434		5.43067473		2.64997878		-0.00004834		 0.00018205		-0.00038592
O		3.24261170		3.00183630		3.30028474		 0.00004834		-0.00018205		 0.00038592
O		3.49747718		3.77350587		0.99807243		 0.00037123		 0.00008857		-0.00022219
O		5.03087976		4.65900515		4.95219199		-0.00037123		-0.00008857		 0.00022219
O		5.29320220		7.86026727		3.16386236		-0.00069863		-0.00041509		-0.00020410
O		3.23515474		0.57224375		2.78640115		 0.00069863		 0.00041509		 0.00020410
O		5.43097891		2.45284427		1.62231933		 0.00065316		-0.00000029		-0.00004106
O		3.09737713		5.97966585		4.32794418		-0.00065316		 0.00000029		 0.00004106
O		3.35969867		6.26520381		2.07309989		-0.00006466		 0.00017026		 0.00027102
O		5.16865737		2.16730722		3.87716363		 0.00006466		-0.00017026		-0.00027102
O		1.17630971		2.86302846		1.45559476		-0.00044669		 0.00063792		-0.00025871
O		7.35204724		5.56948256		4.49466876		 0.00044669		-0.00063792		 0.00025871
O		7.61436878		6.75169392		2.38329188		 0.00035213		-0.00022201		-0.00016042
O		0.91398817		1.68081710		3.56697163		-0.00035213		 0.00022201		 0.00016042
O		0.85195973		0.37168268		0.97186037		-0.00018366		 0.00049986		 0.00013272
O		7.67639631		8.06082834		4.97840314		 0.00018366		-0.00049986		-0.00013272
O		7.93871785		4.28830291		2.07426863		 0.00000551		 0.00009214		 0.00012741
O		0.58963819		4.14420812		3.87599488		-0.00000551		-0.00009214		-0.00012741
O		0.94307183		5.49550145		1.19905356		 0.00041702		 0.00011871		 0.00056107
O		7.58528420		2.93700957		4.75120996		-0.00041702		-0.00011871		-0.00056107
O		7.84760574		1.92974020		2.28951457		-0.00052528		 0.00029083		-0.00011959
O		0.68075029		6.50277082		3.66074804		 0.00052528		-0.00029083		 0.00011959
