# total energy = -22443.3861433 eV

CRYSTAL
PRIMVEC
		9.05300002		0.00000000		0.00000000
		0.00000000		7.67699834		0.92124234
		-0.52464851		0.56663632		4.72194523
PRIMECORD
   40 1
Ca		6.64561268		0.56925083		0.48763079		-0.00009815		-0.00015474		-0.00013957
Ca		1.88274336		7.67438202		5.15555315		 0.00009815		 0.00015474		 0.00013957
Ca		2.14506490		4.58896028		2.45832767		 0.00009630		-0.00027634		-0.00023497
Ca		6.38329114		3.65467257		3.18485537		-0.00009630		 0.00027634		 0.00023497
Mg		1.97928999		1.48826160		2.05506269		 0.00007321		-0.00002431		-0.00011652
Mg		6.54906696		6.75537125		3.58812035		-0.00007321		 0.00002431		 0.00011652
Mg		6.81138940		5.15314596		1.06887956		-0.00002356		 0.00002744		 0.00042146
Mg		1.71696845		3.09048780		4.57430438		 0.00002356		-0.00002744		-0.00042146
Si		4.38151984		1.53656298		2.33776887		-0.00031336		-0.00009871		-0.00001941
Si		4.14683711		6.70706987		3.30541417		 0.00031336		 0.00009871		 0.00001941
Si		4.40915865		5.13401787		0.78967418		 0.00024753		 0.00011449		 0.00009028
Si		4.11919830		3.10961588		4.85350886		-0.00024753		-0.00011449		-0.00009028
Si		0.14788438		6.70771173		2.03077530		-0.00004142		 0.00033051		 0.00022308
Si		8.38047347		1.53592112		3.61240774		 0.00004142		-0.00033051		-0.00022308
Si		8.64279501		2.85402706		1.44360677		 0.00016106		 0.00010000		 0.00035026
Si		-0.11443807		5.38960670		4.19957626		-0.00016106		-0.00010000		-0.00035026
O		3.50493414		1.36368870		0.68907272		 0.00004350		-0.00002385		-0.00052371
O		5.02342190		6.87994415		4.95411032		-0.00004350		 0.00002385		 0.00052371
O		5.28574434		5.35755998		2.44445033		 0.00023398		 0.00021734		 0.00008517
O		3.24261170		2.88607287		3.19873271		-0.00023398		-0.00021734		-0.00008517
O		3.49747718		3.75731911		0.84972182		-0.00011377		 0.00046917		 0.00012330
O		5.03087976		4.48631374		4.79346212		 0.00011377		-0.00046917		-0.00012330
O		5.29320220		7.78201495		2.86197197		-0.00034120		-0.00021427		-0.00019907
O		3.23515474		0.46161790		2.78121106		 0.00034120		 0.00021427		 0.00019907
O		5.43097891		2.40235659		1.53228272		-0.00020641		-0.00022381		-0.00055623
O		3.09737713		5.84127626		4.11090032		 0.00020641		 0.00022381		 0.00055623
O		3.35969867		6.22125240		1.82952440		 0.00022754		 0.00007659		 0.00011567
O		5.16865737		2.02238136		3.81366045		-0.00022754		-0.00007659		-0.00011567
O		1.17630971		2.82207902		1.34762506		-0.00049545		 0.00044191		 0.00002502
O		7.35204724		5.42155383		4.29555798		 0.00049545		-0.00044191		-0.00002502
O		7.61436878		6.69820427		2.12178240		 0.00047733		 0.00010616		-0.00027317
O		0.91398817		1.54543039		3.52140064		-0.00047733		-0.00010616		 0.00027317
O		0.85195973		0.33422861		0.96298481		 0.00035565		-0.00007843		-0.00002425
O		7.67639631		7.90940424		4.68019822		-0.00035565		 0.00007843		 0.00002425
O		7.93871785		4.23131880		1.91185419		-0.00054124		-0.00011826		 0.00009708
O		0.58963819		4.01231496		3.73132885		 0.00054124		 0.00011826		-0.00009708
O		0.94307183		5.48237369		0.98133434		-0.00064852		-0.00009896		-0.00001448
O		7.58528420		2.76125916		4.66184870		 0.00064852		 0.00009896		 0.00001448
O		7.84760574		1.84842887		2.22533604		 0.00019511		-0.00015644		-0.00016100
O		0.68075029		6.39520489		3.41784700		-0.00019511		 0.00015644		 0.00016100
