# total energy = -34531.3143624 eV	

CRYSTAL	
PRIMVEC	
		9.34400001		0.37375963		0.00000000	
		0.21231582		5.30799828		0.00000000	
		-0.48050668		-0.01921727		13.28130631	
PRIMCOORD
   56 1	
Si		1.35868376		2.59175107		4.82257647		 0.00017591		-0.00017448		-0.00053179	
Si		7.71713194		3.07078769		8.45873358		-0.00017591		 0.00017448		 0.00053179	
Si		7.94838074		2.85533913		1.81807855		-0.00015570		 0.00056558		-0.00043367	
Si		1.12743402		2.80720056		11.46323150		 0.00015570		-0.00056558		 0.00043367	
Si		6.13684354		5.43263096		4.82257647		 0.00017482		-0.00017477		-0.00053075	
Si		2.93897215		0.22990781		8.45873358		-0.00017482		 0.00017477		 0.00053075	
Si		3.38254145		5.32245846		1.81807855		-0.00015643		 0.00056647		-0.00043236	
Si		5.69327331		0.34008124		11.46323150		 0.00015643		-0.00056647		 0.00043236	
Mg		4.53790738		2.83127032		6.64065502		0.00000000		0.00000000		0.00000000	
Mg		4.77815978		2.84087989		0.00000000		0.00000000		0.00000000		0.00000000	
Mg		-0.24025240		-0.00960957		6.64065502		0.00000000		0.00000000		0.00000000	
Mg		0.00000000		0.00000000		0.00000000		0.00000000		0.00000000		0.00000000	
O		0.50745294		1.15280269		4.97119474		 0.00003756		 0.00093990		-0.00077259	
O		8.56836275		4.50973701		8.31011531		-0.00003756		-0.00093990		 0.00077259	
O		8.68703948		1.47998638		1.66946122		 0.00042970		-0.00072080		-0.00030049	
O		0.38877528		4.18255426		11.61184976		-0.00042970		 0.00072080		 0.00030049	
O		5.28561273		3.99368258		4.97119474		 0.00003787		 0.00094025		-0.00077278	
O		3.79020297		1.66885712		8.31011531		-0.00003787		-0.00094025		 0.00077278	
O		4.12120019		3.94710570		1.66946122		 0.00043010		-0.00072145		-0.00030066	
O		4.95461458		1.71543399		11.61184976		-0.00043010		 0.00072145		 0.00030066	
O		2.76026272		2.54394354		5.63791540		-0.00039282		 0.00019052		 0.00079508	
O		6.31555298		3.11859616		7.64339371		 0.00039282		-0.00019052		-0.00079508	
O		6.53847991		2.69507268		1.00273869		 0.00036120		 0.00016498		-0.00022000	
O		2.53733579		2.96746702		12.27857136		-0.00036120		-0.00016498		 0.00022000	
O		7.53842251		5.38482343		5.63791540		-0.00039239		 0.00019052		 0.00079519	
O		1.53739319		0.27771627		7.64339371		 0.00039239		-0.00019052		-0.00079519	
O		1.97263968		5.16219294		1.00273869		 0.00036133		 0.00016495		-0.00022012	
O		7.10317602		0.50034676		12.27857136		-0.00036133		-0.00016495		 0.00022012	
O		0.55193790		3.67555766		5.65518196		-0.00039403		 0.00063417		 0.00007632	
O		8.52387780		1.98698203		7.62612902		 0.00039403		-0.00063417		-0.00007632	
O		8.84455660		4.00726279		0.98547306		-0.00021961		 0.00008528		 0.00022874	
O		0.23125909		1.65527691		12.29583605		 0.00021961		-0.00008528		-0.00022874	
O		5.11777812		1.20843834		5.65518196		-0.00039361		 0.00063381		 0.00007598	
O		3.95803757		4.45410136		7.62612902		 0.00039361		-0.00063381		-0.00007598	
O		4.06639682		1.16638290		0.98547306		-0.00021942		 0.00008543		 0.00022858	
O		5.00941888		4.49615680		12.29583605		 0.00021942		-0.00008543		-0.00022858	
O		1.57958516		3.17028455		3.35087456		 0.00040210		 0.00007078		-0.00015209	
O		7.49623053		2.49225515		9.93043549		-0.00040210		-0.00007078		 0.00015209	
O		7.77312949		3.41802561		3.28978046		 0.00023587		-0.00001350		-0.00030395	
O		1.30268621		2.24451409		9.99152959		-0.00023587		 0.00001350		 0.00030395	
O		6.14542445		0.70316522		3.35087456		 0.00040228		 0.00007101		-0.00015287	
O		2.93039124		4.95937448		9.93043549		-0.00040228		-0.00007101		 0.00015287	
O		2.99496970		0.57714572		3.28978046		 0.00023607		-0.00001383		-0.00030496	
O		6.08084600		5.08539398		9.99152959		-0.00023607		 0.00001383		 0.00030496	
Ca		1.69330561		2.61149577		1.18761542		-0.00001863		 0.00020227		 0.00015368	
Ca		7.38251009		3.05104393		12.09369557		 0.00001863		-0.00020227		-0.00015368	
Ca		7.61426855		2.84833395		5.45304054		-0.00034485		 0.00009290		 0.00040126	
Ca		1.46154714		2.81420575		7.82826950		 0.00034485		-0.00009290		-0.00040126	
Ca		6.47146539		5.45237566		1.18761542		-0.00001851		 0.00020230		 0.00015366	
Ca		2.60435031		0.21016404		12.09369557		 0.00001851		-0.00020230		-0.00015366	
Ca		3.04842926		5.31545421		5.45304054		-0.00034465		 0.00009291		 0.00040123	
Ca		6.02738644		0.34708642		7.82826950		 0.00034465		-0.00009291		-0.00040123	
Ca		0.07714029		4.92685754		3.32032798		 0.00036406		-0.00010642		 0.00080283	
Ca		-0.34532461		0.36192160		9.96098300		-0.00036406		 0.00010642		-0.00080283	
Ca		4.64297958		2.45973821		3.32032798		 0.00036390		-0.00010646		 0.00080295	
Ca		4.43283518		3.20280149		9.96098300		-0.00036390		 0.00010646		-0.00080295	
