# total energy = -14249.7687896 eV	

CRYSTAL	
PRIMVEC	
		7.85999966		0.00000000		0.00000000	
		0.00000000		7.85999966		0.00000000	
		0.00000000		0.00000000		5.40080227	
PRIMCOORD
   24 1	
O		1.10503657		2.82496326		1.37363869		-0.00044650		 0.00044650		-0.00013345	
O		6.75496309		5.03503797		1.37363869		 0.00044650		-0.00044650		-0.00013345	
O		2.82496326		6.75496309		4.02716121		 0.00044650		 0.00044650		 0.00013345	
O		5.03503797		1.10503657		4.02716121		-0.00044650		-0.00044650		 0.00013345	
O		0.65096517		1.46384555		4.25766671		-0.00010754		 0.00035232		-0.00010534	
O		7.20903449		6.39615411		4.25766671		 0.00010754		-0.00035232		-0.00010534	
O		1.46384555		7.20903449		1.14313398		 0.00035232		 0.00010754		 0.00010534	
O		6.39615411		0.65096517		1.14313398		-0.00035232		-0.00010754		 0.00010534	
O		3.27903466		5.39384695		1.14313398		 0.00010754		 0.00035232		 0.00010534	
O		4.58096500		2.46615428		1.14313398		-0.00010754		-0.00035232		 0.00010534	
O		2.46615428		3.27903466		4.25766671		-0.00035232		 0.00010754		-0.00010534	
O		5.39384695		4.58096500		4.25766671		 0.00035232		-0.00010754		-0.00010534	
O		0.00000000		3.92999983		4.42487563		0.00000000		0.00000000		-0.00093044	
O		3.92999983		0.00000000		0.97592507		0.00000000		0.00000000		 0.00093044	
Ca		2.60686321		1.32313662		2.73788154		-0.00029149		 0.00029149		 0.00000984	
Ca		5.25313645		6.53686304		2.73788154		 0.00029149		-0.00029149		 0.00000984	
Ca		1.32313662		5.25313645		2.66291758		 0.00029149		 0.00029149		-0.00000984	
Ca		6.53686304		2.60686321		2.66291758		-0.00029149		-0.00029149		-0.00000984	
Si		1.09969334		2.83030649		5.05179942		-0.00024184		 0.00024184		 0.00013881	
Si		6.76030789		5.02969317		5.05179942		 0.00024184		-0.00024184		 0.00013881	
Si		2.83030649		6.76030789		0.34899970		 0.00024184		 0.00024184		-0.00013881	
Si		5.02969317		1.09969334		0.34899970		-0.00024184		-0.00024184		-0.00013881	
Mg		0.00000000		0.00000000		0.00000000		0.00000000		0.00000000		0.00000000	
Mg		3.92999983		3.92999983		0.00000000		0.00000000		0.00000000		0.00000000	
