# total energy = -14248.7857152 eV	

CRYSTAL	
PRIMVEC	
		7.85999966		0.00000000		0.00000000	
		0.00000000		7.85999966		0.00000000	
		0.00000000		0.00000000		4.52159842	
PRIMCOORD
   24 1	
O		1.10503657		2.82496326		1.15002406		 0.00015173		-0.00015173		-0.00023015	
O		6.75496309		5.03503797		1.15002406		-0.00015173		 0.00015173		-0.00023015	
O		2.82496326		6.75496309		3.37157594		-0.00015173		-0.00015173		 0.00023015	
O		5.03503797		1.10503657		3.37157594		 0.00015173		 0.00015173		 0.00023015	
O		0.65096517		1.46384555		3.56455779		 0.00045662		 0.00046780		-0.00043464	
O		7.20903449		6.39615411		3.56455779		-0.00045662		-0.00046780		-0.00043464	
O		1.46384555		7.20903449		0.95704220		 0.00046780		-0.00045662		 0.00043464	
O		6.39615411		0.65096517		0.95704220		-0.00046780		 0.00045662		 0.00043464	
O		3.27903466		5.39384695		0.95704220		-0.00045662		 0.00046780		 0.00043464	
O		4.58096500		2.46615428		0.95704220		 0.00045662		-0.00046780		 0.00043464	
O		2.46615428		3.27903466		3.56455779		-0.00046780		-0.00045662		-0.00043464	
O		5.39384695		4.58096500		3.56455779		 0.00046780		 0.00045662		-0.00043464	
O		0.00000000		3.92999983		3.70454674		0.00000000		0.00000000		-0.00049806	
O		3.92999983		0.00000000		0.81705325		0.00000000		0.00000000		 0.00049806	
Ca		2.60686321		1.32313662		2.29218026		-0.00007857		 0.00007857		 0.00015294	
Ca		5.25313645		6.53686304		2.29218026		 0.00007857		-0.00007857		 0.00015294	
Ca		1.32313662		5.25313645		2.22941974		 0.00007857		 0.00007857		-0.00015294	
Ca		6.53686304		2.60686321		2.22941974		-0.00007857		-0.00007857		-0.00015294	
Si		1.09969334		2.83030649		4.22941394		-0.00031724		 0.00031724		 0.00050711	
Si		6.76030789		5.02969317		4.22941394		 0.00031724		-0.00031724		 0.00050711	
Si		2.83030649		6.76030789		0.29218606		 0.00031724		 0.00031724		-0.00050711	
Si		5.02969317		1.09969334		0.29218606		-0.00031724		-0.00031724		-0.00050711	
Mg		0.00000000		0.00000000		0.00000000		0.00000000		0.00000000		0.00000000	
Mg		3.92999983		3.92999983		0.00000000		0.00000000		0.00000000		0.00000000	
