# total energy = -14250.3705337 eV	

CRYSTAL	
PRIMVEC	
		7.85999966		0.00000000		0.00000000	
		0.00000000		7.85999966		0.00000000	
		0.00000000		0.00000000		5.14959668	
PRIMCOORD
   24 1	
O		1.10503657		2.82496326		1.30974869		 0.00045608		-0.00045608		 0.00043019	
O		6.75496309		5.03503797		1.30974869		-0.00045608		 0.00045608		 0.00043019	
O		2.82496326		6.75496309		3.83985114		-0.00045608		-0.00045608		-0.00043019	
O		5.03503797		1.10503657		3.83985114		 0.00045608		 0.00045608		-0.00043019	
O		0.65096517		1.46384555		4.05963559		 0.00049823		 0.00031818		 0.00005825	
O		7.20903449		6.39615411		4.05963559		-0.00049823		-0.00031818		 0.00005825	
O		1.46384555		7.20903449		1.08996502		 0.00031818		-0.00049823		-0.00005825	
O		6.39615411		0.65096517		1.08996502		-0.00031818		 0.00049823		-0.00005825	
O		3.27903466		5.39384695		1.08996502		-0.00049823		 0.00031818		-0.00005825	
O		4.58096500		2.46615428		1.08996502		 0.00049823		-0.00031818		-0.00005825	
O		2.46615428		3.27903466		4.05963559		-0.00031818		-0.00049823		 0.00005825	
O		5.39384695		4.58096500		4.05963559		 0.00031818		 0.00049823		 0.00005825	
O		0.00000000		3.92999983		4.21906704		0.00000000		0.00000000		-0.00071544	
O		3.92999983		0.00000000		0.93053278		0.00000000		0.00000000		 0.00071544	
Ca		2.60686321		1.32313662		2.61053776		-0.00044317		 0.00044317		-0.00020401	
Ca		5.25313645		6.53686304		2.61053776		 0.00044317		-0.00044317		-0.00020401	
Ca		1.32313662		5.25313645		2.53906206		 0.00044317		 0.00044317		 0.00020401	
Ca		6.53686304		2.60686321		2.53906206		-0.00044317		-0.00044317		 0.00020401	
Si		1.09969334		2.83030649		4.81683259		-0.00035713		 0.00035713		 0.00088624	
Si		6.76030789		5.02969317		4.81683259		 0.00035713		-0.00035713		 0.00088624	
Si		2.83030649		6.76030789		0.33276723		 0.00035713		 0.00035713		-0.00088624	
Si		5.02969317		1.09969334		0.33276723		-0.00035713		-0.00035713		-0.00088624	
Mg		0.00000000		0.00000000		0.00000000		0.00000000		0.00000000		0.00000000	
Mg		3.92999983		3.92999983		0.00000000		0.00000000		0.00000000		0.00000000	
