# total energy = -24714.9835819 eV

CRYSTAL
PRIMVEC
		9.03900340		0.00000000		-1.44624457
		0.00000000		8.69499728		0.00000000
		-0.81423631		0.00000000		5.08900210
PRIMECORD
   40 1
O		1.04576030		0.75124785		0.12474662		 0.00060497		 0.00017511		-0.00028800
O		0.63864031		7.94375126		2.66924675		 0.00060497		-0.00017511		-0.00028800
O		5.25405729		5.09874833		1.34664299		-0.00018389		-0.00019499		-0.00025369
O		4.84693731		3.59625170		3.89114312		-0.00018389		 0.00019499		-0.00025369
O		3.32081521		2.13897019		-0.00768933		-0.00015288		 0.00089877		 0.00062505
O		2.91369523		6.55602984		2.53681080		-0.00015288		-0.00089877		 0.00062505
O		7.60516246		6.48646975		0.73889366		-0.00044805		 0.00042667		-0.00050702
O		7.19804247		2.20853028		3.28339379		-0.00044805		-0.00042667		-0.00050702
O		3.00942376		8.35502532		0.88709915		-0.00041668		 0.00028918		-0.00051521
O		2.60230378		0.33997380		3.43160020		-0.00041668		-0.00028918		-0.00051521
O		7.57126440		4.00752484		-0.10064879		-0.00000908		 0.00010197		 0.00072109
O		7.16414442		4.68747427		2.44385134		-0.00000908		-0.00010197		 0.00072109
O		7.22731595		7.90114595		3.18300680		 0.00001362		 0.00022276		 0.00006865
O		7.63443593		0.79385408		0.63850667		 0.00001362		-0.00022276		 0.00006865
O		2.91153947		3.55364639		2.63285881		 0.00021134		 0.00041351		-0.00000850
O		3.31865945		5.14135272		0.08835868		 0.00021134		-0.00041351		-0.00000850
O		4.83622168		6.61080810		3.98013068		 0.00022794		 0.00036372		 0.00040662
O		5.24334166		2.08419193		1.43563146		 0.00022794		-0.00036372		 0.00040662
O		0.65658575		2.26330763		2.57910213		-0.00008515		-0.00000797		 0.00015826
O		1.06370574		6.43169057		0.03460200		-0.00008515		 0.00000797		 0.00015826
O		5.38504325		8.27503062		1.92618712		-0.00002216		 0.00046002		 0.00002603
O		5.79216324		0.41996941		-0.61831393		-0.00002216		-0.00046002		 0.00002603
O		0.55971480		3.92753106		4.56073484		-0.00014950		 0.00033921		 0.00005381
O		0.96683479		4.76746897		2.01623470		-0.00014950		-0.00033921		 0.00005381
Si		2.62617733		0.77124561		-0.08101170		 0.00034907		-0.00018905		-0.00051123
Si		2.21905734		7.92375259		2.46348843		 0.00034907		 0.00018905		-0.00051123
Si		6.84994545		5.11874608		1.04419314		-0.00009136		 0.00033969		 0.00055508
Si		6.44282546		3.57625303		3.58869327		-0.00009136		-0.00033969		 0.00055508
Si		5.64259930		7.91592686		3.37160234		 0.00034770		 0.00045966		-0.00036330
Si		6.04971929		0.77907225		0.82710221		 0.00034770		-0.00045966		-0.00036330
Si		1.30548858		3.56842822		2.95478556		 0.00029946		 0.00026553		 0.00027415
Si		1.71260857		5.12657181		0.41028634		 0.00029946		-0.00026553		 0.00027415
Mg		8.43340617		0.83558885		2.20110000		-0.00015246		-0.00016085		-0.00073195
Mg		8.84052615		7.85941026		-0.34340013		-0.00015246		 0.00016085		-0.00073195
Mg		3.85853761		5.18308933		3.27027158		 0.00009825		-0.00079828		 0.00016095
Mg		4.26565759		3.51190979		0.72577236		 0.00009825		 0.00079828		 0.00016095
Mg		-0.12090927		2.28417593		1.08596727		-0.00028593		-0.00002272		-0.00053572
Mg		-0.52802926		6.41082410		3.63046741		-0.00028593		 0.00002272		-0.00053572
Mg		4.34175727		6.63167640		0.71805923		-0.00015519		-0.00052975		 0.00066496
Mg		3.93463729		2.06332363		3.26255936		-0.00015519		 0.00052975		 0.00066496
