# total energy = -49413.3853684 eV

CRYSTAL
PRIMVEC
		18.23300630		2.91728913		0.00000000
		1.41105127		8.81909813		0.00000000
		0.00000000		0.00000000		5.18020042
PRIMECORD
   80 1
Mg		7.78404961		6.86634557		4.48760761		 0.00017342		-0.00016557		 0.00018093
Mg		11.86000612		4.87003430		0.69259281		-0.00017342		 0.00016557		-0.00018093
Mg		2.74350666		3.41139343		1.89750740		-0.00017342		 0.00016557		 0.00018093
Mg		16.90054907		8.32498645		3.28269303		 0.00017342		-0.00016557		-0.00018093
Mg		11.58936598		3.17853064		3.28269303		-0.00002938		-0.00089523		-0.00016945
Mg		8.05468975		8.55784923		1.89750740		 0.00002938		 0.00089523		 0.00016945
Mg		17.17118921		10.01648826		0.69259281		 0.00002938		 0.00089523		-0.00016945
Mg		2.47286652		1.71989161		4.48760761		-0.00002938		-0.00089523		 0.00016945
Mg		7.55948310		5.39618814		1.85917425		-0.00034123		 0.00029500		-0.00078050
Mg		12.08457078		6.34019174		3.32102617		 0.00034123		-0.00029500		 0.00078050
Mg		2.96807132		4.88155271		4.44927446		 0.00034123		-0.00029500		-0.00078050
Mg		16.67598256		6.85482716		0.73092596		-0.00034123		 0.00029500		 0.00078050
Mg		12.75397721		10.52397223		0.73092596		 0.00038932		-0.00075800		 0.00084262
Mg		6.89007852		1.21240764		4.44927446		-0.00038932		 0.00075800		-0.00084262
Mg		16.00657798		2.67104667		3.32102617		-0.00038932		 0.00075800		 0.00084262
Mg		3.63747775		9.06533320		1.85917425		 0.00038932		-0.00075800		-0.00084262
Si		5.43255846		3.80640949		0.26211859		 0.00021634		-0.00015672		-0.00029303
Si		14.21149726		7.92997038		4.91808184		-0.00021634		 0.00015672		 0.00029303
Si		5.09499780		6.47133135		2.85221880		-0.00021634		 0.00015672		-0.00029303
Si		14.54905792		5.26505037		2.32798162		 0.00021634		-0.00015672		 0.00029303
Si		14.47056729		9.54915624		2.32798162		-0.00034714		 0.00031372		 0.00015133
Si		5.17348843		2.18722364		2.85221880		 0.00034714		-0.00031372		-0.00015133
Si		14.28998789		3.64586266		4.91808184		 0.00034714		-0.00031372		 0.00015133
Si		5.35406784		8.09051721		0.26211859		-0.00034714		 0.00031372		-0.00015133
Si		9.11123881		4.35718813		4.13431854		 0.00012658		 0.00067898		-0.00058539
Si		10.53281507		7.37919175		1.04588188		-0.00012658		-0.00067898		 0.00058539
Si		1.41631746		5.92055272		1.54421833		-0.00012658		-0.00067898		-0.00058539
Si		18.22773827		5.81582715		3.63598209		 0.00012658		 0.00067898		 0.00058539
Si		10.77946930		8.92076960		3.63598209		 0.00029184		-0.00054118		 0.00001762
Si		8.86458642		2.81561028		1.54421833		-0.00029184		 0.00054118		-0.00001762
Si		17.98108588		4.27424930		1.04588188		-0.00029184		 0.00054118		 0.00001762
Si		1.66296984		7.46213057		4.13431854		 0.00029184		-0.00054118		-0.00001762
O		3.82650116		3.53998858		0.17612752		 0.00020603		 0.00054346		-0.00068688
O		15.81755272		8.19639129		5.00407291		-0.00020603		-0.00054346		 0.00068688
O		6.70105326		6.73775227		2.76622773		-0.00020603		-0.00054346		-0.00068688
O		12.94300246		4.99862761		2.41397270		 0.00020603		 0.00054346		 0.00068688
O		16.07351880		9.79617607		2.41397270		-0.00081211		-0.00085018		 0.00046867
O		3.57053692		1.94020380		2.76622773		 0.00081211		 0.00085018		-0.00046867
O		12.68703638		3.39884468		5.00407291		 0.00081211		 0.00085018		 0.00046867
O		6.95701934		8.33753704		0.17612752		-0.00081211		-0.00085018		-0.00046867
O		6.38737511		5.34356684		0.22274956		-0.00075470		-0.00018430		-0.00054948
O		13.25667876		6.39281303		4.95745271		 0.00075470		 0.00018430		 0.00054948
O		4.14017931		4.93417400		2.81284977		 0.00075470		 0.00018430		-0.00054948
O		15.50387642		6.80220772		2.36735065		-0.00075470		-0.00018430		 0.00054948
O		12.55933493		2.03441361		2.36735065		-0.00040362		-0.00026335		-0.00028692
O		7.08471895		9.70196627		2.81284977		 0.00040362		 0.00026335		 0.00028692
O		16.20122025		11.16060529		4.95745271		 0.00040362		 0.00026335		-0.00028692
O		3.44283547		0.57577458		0.22274956		-0.00040362		-0.00026335		 0.00028692
O		5.82930100		2.84384497		4.30992720		-0.00036529		-0.00001059		-0.00006123
O		13.81475288		8.89253491		0.87027323		 0.00036529		 0.00001059		 0.00006123
O		4.69825342		7.43389403		1.71982698		 0.00036529		 0.00001059		-0.00006123
O		14.94580045		4.30248399		3.46037344		-0.00036529		-0.00001059		 0.00006123
O		13.73686421		8.40572056		3.46037344		 0.00012988		-0.00072162		-0.00008638
O		5.90719151		3.33065931		1.71982698		-0.00012988		 0.00072162		 0.00008638
O		15.02369097		4.78929834		0.87027323		-0.00012988		 0.00072162		-0.00008638
O		4.62036475		6.94708153		4.30992720		 0.00012988		-0.00072162		 0.00008638
O		10.73232655		4.65093525		4.13379968		 0.00028161		-0.00012169		-0.00017429
O		8.91172918		7.08544462		1.04640074		-0.00028161		 0.00012169		 0.00017429
O		18.02822864		8.54408365		1.54369947		-0.00028161		 0.00012169		-0.00017429
O		1.61582709		3.19229623		3.63650096		 0.00028161		-0.00012169		 0.00017429
O		9.16966916		8.69757503		3.63650096		 0.00039246		-0.00013827		-0.00016859
O		10.47438657		3.03880484		1.54369947		-0.00039246		 0.00013827		 0.00016859
O		1.35788526		1.58016397		1.04640074		-0.00039246		 0.00013827		-0.00016859
O		18.28616862		10.15621591		4.13379968		 0.00039246		-0.00013827		 0.00016859
O		8.56633571		5.52634911		3.57433700		-0.00027058		 0.00000500		-0.00074527
O		11.07772002		6.21003076		1.60586158		 0.00027058		-0.00000500		 0.00074527
O		1.96122056		4.75139173		0.98423863		 0.00027058		-0.00000500		-0.00074527
O		17.68283516		6.98498814		4.19596179		-0.00027058		 0.00000500		 0.00074527
O		11.73696521		10.33031413		4.19596179		 0.00008697		 0.00028145		 0.00015701
O		7.90709051		1.40606574		0.98423863		-0.00008697		-0.00028145		-0.00015701
O		17.02358997		2.86470477		1.60586158		-0.00008697		-0.00028145		 0.00015701
O		2.62046575		8.87167510		3.57433700		 0.00008697		 0.00028145		-0.00015701
O		8.44915002		3.02842202		3.12366032		 0.00017412		-0.00015041		 0.00018631
O		11.19490386		8.70795600		2.05654010		-0.00017412		 0.00015041		-0.00018631
O		2.07840440		7.24931698		0.53356011		-0.00017412		 0.00015041		 0.00018631
O		17.56565132		4.48706290		4.64664032		 0.00017412		-0.00015041		-0.00018631
O		11.03997036		7.73961935		4.64664032		 0.00009728		 0.00024652		 0.00069598
O		8.60408536		3.99676053		0.53356011		-0.00009728		-0.00024652		-0.00069598
O		17.72058482		5.45539955		2.05654010		-0.00009728		-0.00024652		 0.00069598
O		1.92347090		6.28098032		3.12366032		 0.00009728		 0.00024652		-0.00069598
