# total energy = -14250.4009883 eV

CRYSTAL
PRIMVEC
		7.79841656		0.00000000		0.00000000
		0.00000000		7.79841656		0.00000000
		0.00000000		0.00000000		4.96188416
PRIMECORD
   24 1
O		1.10729553		2.79191118		1.26170051		 0.00000649		-0.00000651		-0.00017181
O		6.69111867		5.00650224		1.26170051		-0.00000647		 0.00000658		-0.00017167
O		2.79191196		6.69111867		3.70018051		-0.00000648		-0.00000659		 0.00017101
O		5.00650302		1.10729553		3.70018051		 0.00000647		 0.00000646		 0.00017101
O		0.64007593		1.42910592		3.85606553		 0.00025623		 0.00017131		-0.00031171
O		7.15833906		6.36930749		3.85606553		-0.00025619		-0.00017125		-0.00031167
O		1.42910671		7.15833749		1.10581471		 0.00017152		-0.00025640		 0.00031157
O		6.36930828		0.64007593		1.10581549		-0.00017155		 0.00025625		 0.00031156
O		3.25913078		5.32831263		1.10581471		-0.00025635		 0.00017168		 0.00031140
O		4.53928342		2.47010157		1.10581471		 0.00025630		-0.00017163		 0.00031151
O		2.47010078		3.25912999		3.85606553		-0.00017124		-0.00025616		-0.00031162
O		5.32831342		4.53928342		3.85606553		 0.00017131		 0.00025631		-0.00031170
O		0.00000000		3.89920671		4.02496277		 0.00000006		 0.00000004		 0.00034761
O		3.89920749		0.00000000		0.93691825		 0.00000001		-0.00000003		-0.00034790
Ca		2.59667901		1.30252692		2.50581348		-0.00076156		 0.00076156		 0.00019173
Ca		5.20173598		6.49588650		2.50581348		 0.00076153		-0.00076157		 0.00019173
Ca		1.30252770		5.20173441		2.45606676		 0.00076158		 0.00076154		-0.00019186
Ca		6.49588650		2.59667979		2.45606676		-0.00076160		-0.00076160		-0.00019186
Si		1.10502242		2.79418429		4.61568655		-0.00015440		 0.00015435		-0.00016357
Si		6.69339257		5.00422913		4.61568655		 0.00015429		-0.00015449		-0.00016363
Si		2.79418508		6.69339179		0.34619368		 0.00015423		 0.00015422		 0.00016506
Si		5.00422913		1.10502242		0.34619368		-0.00015411		-0.00015406		 0.00016481
Mg		0.00000000		0.00000000		0.00000000		-0.00000003		 0.00000006		-0.00000003
Mg		3.89920749		3.89920671		0.00000000		-0.00000005		-0.00000009		 0.00000003
