# total energy = -14247.6427355 eV

CRYSTAL
PRIMVEC
		8.33956968		-0.00000786		0.00000000
		-0.00000786		8.33955396		0.00000000
		0.00000000		0.00000000		5.50095438
PRIMECORD
   24 1
O		1.29507721		2.87470056		1.18910398		-0.00020522		 0.00020522		-0.00049865
O		7.04448539		5.46484554		1.18910476		 0.00020515		-0.00020536		-0.00049851
O		2.87470134		7.04448225		4.31185355		 0.00020370		 0.00020396		 0.00049220
O		5.46486362		1.29506542		4.31185355		-0.00020376		-0.00020386		 0.00049118
O		0.66047577		1.60516756		4.33080401		-0.00021629		 0.00031695		-0.00017666
O		7.67908998		6.73437933		4.33080636		 0.00021621		-0.00031713		-0.00017697
O		1.60517070		7.67908447		1.17015666		 0.00031750		 0.00021566		 0.00017495
O		6.73439190		0.66046084		1.17015588		-0.00031761		-0.00021549		 0.00017509
O		3.50930357		5.77494296		1.17015038		 0.00021532		 0.00031711		 0.00017533
O		4.83025904		2.56460392		1.17015038		-0.00021520		-0.00031746		 0.00017511
O		2.56460863		3.50930514		4.33080243		-0.00031702		 0.00021663		-0.00017686
O		5.77495633		4.83024175		4.33080243		 0.00031679		-0.00021655		-0.00017666
O		0.00000000		4.16977541		4.59179136		 0.00000006		 0.00000009		 0.00063294
O		4.16978405		0.00000000		0.90916066		0.00000000		 0.00000009		-0.00063264
Ca		2.51680019		1.65295478		2.59624513		 0.00009151		-0.00009222		 0.00024747
Ca		5.82276242		6.68659210		2.59624592		-0.00009151		 0.00009212		 0.00024753
Ca		1.65297679		5.82273255		2.90471318		-0.00009121		-0.00009153		-0.00024910
Ca		6.68658660		2.51681355		2.90471161		 0.00009124		 0.00009164		-0.00024909
Si		1.15626176		3.01351522		5.07716835		-0.00020592		 0.00020607		-0.00005045
Si		7.18330242		5.32603087		5.07716914		 0.00020591		-0.00020607		-0.00005074
Si		3.01351522		7.18329142		0.42378367		 0.00020621		 0.00020595		 0.00006000
Si		5.32604738		1.15625468		0.42378289		-0.00020618		-0.00020607		 0.00006124
Mg		0.00000000		0.00000000		0.00000000		 0.00000009		 0.00000011		 0.00000193
Mg		4.16978091		4.16977305		0.00000000		 0.00000022		 0.00000015		 0.00000140
