# total energy = -14249.6742314 eV

CRYSTAL
PRIMVEC
		7.63683069		0.00000000		0.00000000
		0.00000000		7.63683069		0.00000000
		0.00000000		0.00000000		4.84550115
PRIMECORD
   24 1
O		1.08636749		2.73204628		1.25819338		 0.00006487		-0.00006490		 0.00003937
O		6.55046005		4.90478205		1.25819338		-0.00006491		 0.00006493		 0.00003913
O		2.73204628		6.55046084		3.58731092		-0.00006482		-0.00006488		-0.00004002
O		4.90478205		1.08636749		3.58731092		 0.00006486		 0.00006486		-0.00004036
O		0.62197592		1.38208269		3.73337801		 0.00047458		 0.00027453		-0.00062123
O		7.01485162		6.25474485		3.73337801		-0.00047444		-0.00027420		-0.00062133
O		1.38208269		7.01485162		1.11212629		 0.00027504		-0.00047449		 0.00062090
O		6.25474485		0.62197671		1.11212707		-0.00027520		 0.00047446		 0.00062080
O		3.19643707		5.20049646		1.11212629		-0.00047450		 0.00027513		 0.00062082
O		4.44039048		2.43633187		1.11212629		 0.00047450		-0.00027517		 0.00062081
O		2.43633108		3.19643707		3.73337801		-0.00027442		-0.00047445		-0.00062121
O		5.20049725		4.44039048		3.73337801		 0.00027450		 0.00047455		-0.00062127
O		0.00000000		3.81841377		3.93168108		 0.00000014		-0.00000006		 0.00033168
O		3.81841377		0.00000000		0.91382321		-0.00000008		-0.00000010		-0.00033149
Ca		2.56484129		1.25357248		2.45214226		-0.00070116		 0.00070118		 0.00009552
Ca		5.07198625		6.38325585		2.45214226		 0.00070117		-0.00070122		 0.00009551
Ca		1.25357248		5.07198625		2.39336125		 0.00070109		 0.00070107		-0.00009555
Ca		6.38325585		2.56484129		2.39336125		-0.00070115		-0.00070110		-0.00009559
Si		1.09434146		2.72407231		4.50619047		-0.00020405		 0.00020391		 0.00000549
Si		6.54248687		4.91275524		4.50619047		 0.00020373		-0.00020420		 0.00000595
Si		2.72407309		6.54248687		0.33931304		 0.00020356		 0.00020348		-0.00000412
Si		4.91275524		1.09434146		0.33931304		-0.00020325		-0.00020327		-0.00000378
Mg		0.00000000		0.00000000		0.00000000		-0.00000002		-0.00000001		-0.00000004
Mg		3.81841377		3.81841377		0.00000000		-0.00000003		-0.00000004		-0.00000000
