# total energy = -24715.510629 eV	

CRYSTAL	
PRIMVEC	
		9.61326956		0.00000000		0.00000000	
		0.00000000		8.82246278		0.00000000	
		-1.62743040		0.00000000		5.28036709	
PRIMCOORD
   40 1	
Mg		2.03778627		5.76459613		1.15481612		 0.00009427		-0.00016306		 0.00033333	
Mg		5.94805577		3.05786473		4.12555097		-0.00009427		 0.00016306		-0.00033333	
Mg		6.76177001		1.35336474		1.48536647		-0.00009427		-0.00016306		-0.00033333	
Mg		1.22407203		7.46909419		3.79499966		 0.00009427		 0.00016306		 0.00033333	
Mg		2.11556628		0.10675247		1.13950314		 0.00050632		 0.00042906		-0.00011837	
Mg		5.87027576		8.71570838		4.14086395		-0.00050632		-0.00042906		 0.00011837	
Mg		6.68399000		4.51798194		1.50068137		-0.00050632		 0.00042906		 0.00011837	
Mg		1.30185204		4.30447795		3.77968668		 0.00050632		-0.00042906		-0.00011837	
Si		-0.04067759		2.99610716		1.57302122		-0.00001560		 0.00055446		 0.00026216	
Si		8.02651963		5.82635273		3.70734587		 0.00001560		-0.00055446		-0.00026216	
Si		8.84023387		7.40733663		1.06716232		 0.00001560		 0.00055446		-0.00026216	
Si		-0.85439087		1.41512327		4.21320476		-0.00001560		-0.00055446		 0.00026216	
Si		4.94609063		7.39057493		1.19441894		-0.00058607		 0.00030017		 0.00001778	
Si		3.03975044		1.43188496		4.08594815		 0.00058607		-0.00030017		-0.00001778	
Si		3.85346468		2.97934450		1.44576460		 0.00058607		 0.00030017		-0.00001778	
Si		4.13237736		5.84311443		3.83460249		-0.00058607		-0.00030017		 0.00001778	
O		8.04909831		3.00757675		0.99218074		-0.00010829		-0.00076747		 0.00009596	
O		-0.06325724		5.81488314		4.28818538		 0.00010829		 0.00076747		-0.00009596	
O		0.75045700		7.41880622		1.64800280		 0.00010829		-0.00076747		-0.00009596	
O		7.23538503		1.40365271		3.63236525		-0.00010829		 0.00076747		 0.00009596	
O		0.68054066		4.41652253		1.69394173		-0.00003771		 0.00053722		 0.00043672	
O		7.30530042		4.40593640		3.58642536		 0.00003771		-0.00053722		-0.00043672	
O		8.11901466		0.00529307		0.94624181		 0.00003771		 0.00053722		-0.00043672	
O		-0.13317262		8.81716683		4.33412624		-0.00003771		-0.00053722		 0.00043672	
O		0.00731378		2.47911129		3.23264070		-0.00010327		 0.00056609		 0.00039009	
O		7.97852730		6.34334860		2.04772543		 0.00010327		-0.00056609		-0.00039009	
O		7.16481402		6.89034172		4.68790994		 0.00010327		 0.00056609		-0.00039009	
O		0.82102802		1.93211914		0.59245715		-0.00010327		-0.00056609		 0.00039009	
O		3.39361874		7.39233896		0.67641464		-0.00071113		 0.00015088		-0.00016280	
O		4.59222234		1.43012093		4.60395245		 0.00071113		-0.00015088		 0.00016280	
O		5.40593658		2.98110854		1.96376890		 0.00071113		 0.00015088		 0.00016280	
O		2.57990450		5.84135040		3.31659915		-0.00071113		-0.00015088		-0.00016280	
O		5.47592118		8.61424993		2.10475519		-0.00008740		-0.00012433		 0.00013495	
O		2.50992086		0.20820996		3.17561286		 0.00008740		 0.00012433		-0.00013495	
O		3.32363510		4.20301951		0.53542931		 0.00008740		-0.00012433		-0.00013495	
O		4.66220790		4.61943943		4.74493778		-0.00008740		 0.00012433		 0.00013495	
O		5.07876145		6.13160961		2.36718880		-0.00037073		-0.00018752		 0.00023322	
O		2.90707963		2.69085028		2.91317925		 0.00037073		 0.00018752		-0.00023322	
O		3.72079387		1.72038015		0.27299474		 0.00037073		-0.00018752		-0.00023322	
O		4.26504817		7.10208071		5.00737234		-0.00037073		 0.00018752		 0.00023322	
