# total energy = -24714.4251099 eV	

CRYSTAL	
PRIMVEC	
		9.61326956		0.00000000		0.00000000	
		0.00000000		8.82246278		0.00000000	
		-1.62743040		0.00000000		4.54356766	
PRIMCOORD
   40 1	
Mg		2.03778627		5.76459613		0.99367849		-0.00001619		 0.00013108		 0.00049380	
Mg		5.94805577		3.05786473		3.54989301		 0.00001619		-0.00013108		-0.00049380	
Mg		6.76177001		1.35336474		1.27810726		 0.00001619		 0.00013108		-0.00049380	
Mg		1.22407203		7.46909419		3.26546520		-0.00001619		-0.00013108		 0.00049380	
Mg		2.11556628		0.10675247		0.98050254		-0.00006846		-0.00000737		 0.00053578	
Mg		5.87027576		8.71570838		3.56306896		 0.00006846		 0.00000737		-0.00053578	
Mg		6.68399000		4.51798194		1.29128321		 0.00006846		-0.00000737		-0.00053578	
Mg		1.30185204		4.30447795		3.25228926		-0.00006846		 0.00000737		 0.00053578	
Si		-0.04067759		2.99610716		1.35353009		 0.00036751		 0.00012792		-0.00010172	
Si		8.02651963		5.82635273		3.19004141		-0.00036751		-0.00012792		 0.00010172	
Si		8.84023387		7.40733663		0.91825566		-0.00036751		 0.00012792		 0.00010172	
Si		-0.85439087		1.41512327		3.62531584		 0.00036751		-0.00012792		-0.00010172	
Si		4.94609063		7.39057493		1.02775561		 0.00014031		 0.00011918		-0.00002059	
Si		3.03975044		1.43188496		3.51581589		-0.00014031		-0.00011918		 0.00002059	
Si		3.85346468		2.97934450		1.24403014		-0.00014031		 0.00011918		 0.00002059	
Si		4.13237736		5.84311443		3.29954232		 0.00014031		-0.00011918		-0.00002059	
O		8.04909831		3.00757675		0.85373717		 0.00008046		 0.00066334		 0.00030755	
O		-0.06325724		5.81488314		3.68983530		-0.00008046		-0.00066334		-0.00030755	
O		0.75045700		7.41880622		1.41804859		-0.00008046		 0.00066334		-0.00030755	
O		7.23538503		1.40365271		3.12552292		 0.00008046		-0.00066334		 0.00030755	
O		0.68054066		4.41652253		1.45757835		 0.00046722		 0.00010411		 0.00003826	
O		7.30530042		4.40593640		3.08599411		-0.00046722		-0.00010411		-0.00003826	
O		8.11901466		0.00529307		0.81420836		-0.00046722		 0.00010411		-0.00003826	
O		-0.13317262		8.81716683		3.72936410		 0.00046722		-0.00010411		 0.00003826	
O		0.00731378		2.47911129		2.78157455		 0.00020522		 0.00032854		 0.00032846	
O		7.97852730		6.34334860		1.76199695		-0.00020522		-0.00032854		-0.00032846	
O		7.16481402		6.89034172		4.03378270		-0.00020522		 0.00032854		-0.00032846	
O		0.82102802		1.93211914		0.50978880		 0.00020522		-0.00032854		 0.00032846	
O		3.39361874		7.39233896		0.58203156		 0.00009329		 0.00045494		 0.00050945	
O		4.59222234		1.43012093		3.96154090		-0.00009329		-0.00045494		-0.00050945	
O		5.40593658		2.98110854		1.68975515		-0.00009329		 0.00045494		-0.00050945	
O		2.57990450		5.84135040		2.85381827		 0.00009329		-0.00045494		 0.00050945	
O		5.47592118		8.61424993		1.81106789		-0.00003130		-0.00003371		 0.00022559	
O		2.50992086		0.20820996		2.73250362		 0.00003130		 0.00003371		-0.00022559	
O		3.32363510		4.20301951		0.46071787		 0.00003130		-0.00003371		-0.00022559	
O		4.66220790		4.61943943		4.08285364		-0.00003130		 0.00003371		 0.00022559	
O		5.07876145		6.13160961		2.03688263		-0.00007503		 0.00038546		 0.00017541	
O		2.90707963		2.69085028		2.50668888		 0.00007503		-0.00038546		-0.00017541	
O		3.72079387		1.72038015		0.23490313		 0.00007503		 0.00038546		-0.00017541	
O		4.26504817		7.10208071		4.30866838		-0.00007503		-0.00038546		 0.00017541	
