# total energy = -49438.6084171 eV

CRYSTAL
PRIMVEC
		14.02400194		0.00000000		-1.68287684
		0.00000000		5.10899912		0.00000000
		-1.04796143		0.00000000		8.73299308
PRIMECORD
   70 1
Mg		2.42199940		1.67524108		-0.24502246		-0.00062495		 0.00069059		 0.00013829
Mg		11.59089212		3.43375945		-1.34528874		 0.00002788		-0.00035467		-0.00072891
Mg		8.91001966		0.87925848		3.28003848		-0.00062495		-0.00069059		 0.00013829
Mg		4.05491185		4.22974064		3.86265046		 0.00002788		 0.00035467		-0.00072891
Mg		2.30565639		4.27010172		1.23131019		-0.00062528		-0.00018778		-0.00014290
Mg		11.35113673		0.83889740		0.14585356		-0.00019228		 0.00000707		-0.00008795
Mg		8.79367806		3.39339838		4.75636972		-0.00062528		 0.00018778		-0.00014290
Mg		3.81515645		1.71560216		5.35379276		-0.00019228		-0.00000707		-0.00008795
Mg		4.20402678		1.76822481		2.28598504		 0.00005409		-0.00010026		-0.00005990
Mg		9.14047541		3.34077431		1.69361155		-0.00000725		-0.00015284		 0.00020533
Mg		10.69204704		0.78627475		5.81104599		 0.00005409		 0.00010026		-0.00005990
Mg		1.60449514		4.32272437		6.90155216		-0.00000725		 0.00015284		 0.00020533
Mg		-0.86834016		2.55449956		7.23616421		 0.00012724		 0.00009662		 0.00000771
Mg		6.66764012		0.00000000		2.02822360		 0.00012724		-0.00009662		 0.00000771
Mg		-0.19596910		2.55449956		1.63307064		-0.00002855		-0.00066576		-0.00060812
Mg		6.29205116		0.00000000		5.15813158		-0.00002855		 0.00066576		-0.00060812
Mg		-0.69427409		0.00000000		5.78561321		-0.00049666		-0.00021085		 0.00032447
Mg		6.84170618		2.55449956		0.57767260		-0.00049666		 0.00021085		 0.00032447
Mg		-0.36207029		0.00000000		3.01725150		 0.00000445		-0.00031508		-0.00004134
Mg		6.12594996		2.55449956		6.54231103		 0.00000445		 0.00031508		-0.00004134
Si		-0.00806939		0.00000000		0.06724445		-0.00021774		-0.00009402		 0.00048683
Si		6.47995087		2.55449956		3.59230398		-0.00021774		 0.00009402		 0.00048683
Si		5.27609327		0.07203693		-0.58923360		 0.00027332		 0.00021155		 0.00031192
Si		8.73721634		5.03696219		-1.00456921		-0.00011822		-0.00007369		 0.00011357
Si		11.76411353		2.48246263		2.93582594		 0.00027332		-0.00021155		 0.00031192
Si		1.20123748		2.62653649		4.20337140		-0.00011822		 0.00007369		 0.00011357
O		4.78291410		3.62125943		7.97820915		-0.00022320		-0.00013311		 0.00017731
O		7.15857913		1.48774110		7.69312929		 0.00015957		 0.00011933		-0.00002829
O		12.31889437		4.04224066		2.77026854		-0.00022320		 0.00013311		 0.00017731
O		0.67056028		1.06675846		4.16806835		 0.00015957		-0.00011933		-0.00002829
O		1.09283956		3.54104859		-0.08810509		-0.00054722		 0.00036734		-0.00036658
O		12.92068051		1.56795194		-1.50744634		 0.00039058		-0.00000129		-0.00011689
O		7.58085982		4.12245150		3.43695444		-0.00054722		-0.00036734		-0.00036658
O		5.38470024		0.98654762		3.70049427		 0.00039058		 0.00000129		-0.00011689
O		3.13733753		0.11239801		2.59388039		-0.00040401		 0.00044304		-0.00052330
O		10.16336142		4.99660252		1.75075690		 0.00056024		 0.00079180		 0.00025385
O		9.62535779		2.44210155		6.11893851		-0.00040401		-0.00044304		-0.00052330
O		2.62738114		2.66689757		6.95869751		 0.00056024		-0.00079180		 0.00025385
O		3.40915438		2.61580744		0.98527499		 0.00003512		 0.00001845		-0.00007157
O		10.27530461		2.49319168		0.16133696		-0.00007761		 0.00032473		-0.00046202
O		9.89717605		5.04769124		4.51033452		 0.00003512		-0.00001845		-0.00007157
O		2.73932575		0.06130788		5.36927757		-0.00007761		-0.00032473		-0.00046202
O		0.90538054		0.73569593		1.20912325		 0.00083288		 0.00020334		-0.00006372
O		12.79773424		4.37330319		-0.21795829		 0.00021005		 0.00047504		-0.00010231
O		7.39340080		1.81880363		4.73418278		 0.00083288		-0.00020334		-0.00006372
O		5.26175256		3.29019549		4.98998091		 0.00021005		-0.00047504		-0.00010231
O		5.64825843		3.30552352		2.43717065		-0.00012404		 0.00034878		 0.00037826
O		7.61722786		1.80347701		2.20089556		 0.00022239		-0.00037249		 0.00068600
O		12.13627868		4.35797657		5.96223018		-0.00012404		-0.00034878		 0.00037826
O		0.08124759		0.75102255		7.40883335		 0.00022239		 0.00037249		 0.00068600
O		5.64537842		0.78167719		0.69885329		 0.00044979		 0.00016125		 0.00024311
O		8.04348322		4.32732334		0.41107987		-0.00025380		-0.00051178		-0.00006279
O		12.13339868		1.77282237		4.22391282		 0.00044979		-0.00016125		 0.00024311
O		0.50750294		3.33617675		5.61902048		-0.00025380		 0.00051178		-0.00006279
O		0.88214838		3.49966489		2.88860312		 0.00033111		 0.00005201		-0.00011136
O		12.41268180		1.60933564		1.50493922		 0.00019174		-0.00071860		 0.00028491
O		7.37016722		4.16383520		6.41366265		 0.00033111		-0.00005201		-0.00011136
O		4.87670152		0.94516533		6.71287842		 0.00019174		 0.00071860		 0.00028491
O		3.63609875		0.02452315		-0.37608049		 0.00033739		 0.00017862		 0.00035556
O		10.37322913		5.08447738		-1.18453654		-0.00019478		 0.00037733		 0.00008926
O		10.12411901		2.52997641		3.14897904		 0.00033739		-0.00017862		 0.00035556
O		2.83724886		2.57902271		4.02340266		-0.00019478		-0.00037733		 0.00008926
H		4.10240444		3.06539947		0.36843625		-0.00050128		 0.00012038		-0.00011054
H		9.71200381		2.04359965		-0.30471589		 0.00092894		 0.00085483		 0.00038323
H		10.59042328		4.59809921		3.89349579		-0.00050128		-0.00012038		-0.00011054
H		2.17602353		0.51089991		4.90322330		 0.00092894		-0.00085483		 0.00038323
H		3.31489802		0.91961956		3.47547226		 0.00035327		-0.00011413		-0.00026254
H		9.76593722		4.18937956		2.70134750		-0.00085320		 0.00038638		-0.00048858
H		9.80291828		1.63488000		7.00053179		 0.00035327		 0.00011413		-0.00026254
H		2.22995836		3.47412053		7.90928670		-0.00085320		-0.00038638		-0.00048858
