# total energy = -49443.712543 eV

CRYSTAL
PRIMVEC
		14.02399591		0.00000000		1.12191686
		0.00000000		5.10900214		0.00000000
		0.69864279		0.00000000		8.73299971
PRIMECORD
   70 1
Mg		2.43125693		1.67524155		0.24048934		-0.00048089		-0.00024231		 0.00005776
Mg		11.60014902		3.43375918		0.97400166		 0.00004429		-0.00020830		 0.00011221
Mg		9.79257628		0.87925952		5.16794903		-0.00048089		 0.00024231		 0.00005776
Mg		4.93746824		4.22974122		4.77954027		 0.00004429		 0.00020830		 0.00011221
Mg		2.61166263		4.27010181		1.72916166		-0.00016425		-0.00034358		 0.00003117
Mg		11.65714175		0.83889752		2.45280049		-0.00027371		 0.00005967		-0.00075188
Mg		9.97298198		3.39339859		6.65662135		-0.00016425		 0.00034358		 0.00003117
Mg		4.99446237		1.71560214		6.25834051		-0.00027371		-0.00005967		-0.00075188
Mg		4.77027456		1.76822510		3.19474144		 0.00026187		 0.00031442		 0.00026198
Mg		9.70672281		3.34077563		3.58965702		-0.00002228		-0.00010947		 0.00005798
Mg		12.13159531		0.78627456		8.12220113		 0.00026187		-0.00031442		 0.00026198
Mg		3.04404343		4.32272477		7.39519703		-0.00002228		 0.00010947		 0.00005798
Mg		0.57889334		2.55449966		7.23616326		-0.00029809		-0.00013160		-0.00036426
Mg		7.24157272		0.00000000		3.43062465		-0.00029809		 0.00013160		-0.00036426
Mg		0.13064574		2.55449966		1.63307031		-0.00028254		 0.00017708		 0.00050777
Mg		7.49196649		0.00000000		6.56053141		-0.00028254		-0.00017708		 0.00050777
Mg		0.46284962		0.00000000		5.78561318		-0.00039304		 0.00013931		 0.00028383
Mg		7.12552899		2.55449966		1.98007317		-0.00039304		-0.00013931		 0.00028383
Mg		0.24137990		0.00000000		3.01725080		 0.00041148		 0.00069702		-0.00065995
Mg		7.60269925		2.55449966		7.94471049		 0.00041148		-0.00069702		-0.00065995
Si		0.00537991		0.00000000		0.06724467		 0.00009347		-0.00012485		-0.00011356
Si		7.36669926		2.55449966		4.99470436		 0.00009347		 0.00012485		-0.00011356
Si		5.28500149		0.07203650		0.46705338		 0.00022790		-0.00029307		-0.00003036
Si		8.74612449		5.03696283		0.74394294		-0.00004777		-0.00002365		 0.00046329
Si		12.64632224		2.48246316		5.39451307		 0.00022790		 0.00029307		-0.00003036
Si		2.08344512		2.62653757		4.54948295		-0.00004777		 0.00002365		 0.00046329
O		6.51833625		3.62125837		9.14304206		 0.00013143		-0.00032678		 0.00008426
O		8.89400030		1.48774096		9.33309474		-0.00024729		-0.00025356		 0.00059354
O		13.18101562		4.04224063		5.33750205		 0.00013143		 0.00032678		 0.00008426
O		1.53268095		1.06675870		4.40563505		-0.00024729		 0.00025356		 0.00059354
O		1.10157196		3.54104789		0.13151097		-0.00001523		-0.00013959		-0.00010411
O		12.92941333		1.56795144		1.07773940		 0.00000024		 0.00000283		-0.00010262
O		8.46289131		4.12245251		5.05897066		-0.00001523		 0.00013959		-0.00010411
O		6.26673396		0.98654822		4.88327942		 0.00000024		-0.00000283		-0.00010262
O		3.74008912		0.11239850		3.29367750		 0.00087385		-0.00021274		-0.00024299
O		10.76611227		4.99660224		3.85575862		-0.00037187		-0.00016965		-0.00002297
O		11.10140847		2.44210257		8.22113718		 0.00087385		 0.00021274		-0.00024299
O		4.10343289		2.66689816		7.66129863		-0.00037187		 0.00016965		-0.00002297
O		3.69210465		2.61580730		1.70106063		-0.00006674		-0.00006642		 0.00050613
O		10.55825552		2.49319203		2.25035180		-0.00008914		 0.00008532		-0.00005836
O		11.05342540		5.04769170		6.62852031		-0.00006674		 0.00006642		 0.00050613
O		3.89557474		0.06130763		6.05589181		-0.00008914		-0.00008532		-0.00005836
O		1.17278544		0.73569580		1.42228866		 0.00007629		-0.00037590		-0.00011187
O		13.06513791		4.37330353		2.37367613		 0.00009374		 0.00028337		-0.00002264
O		8.53410619		1.81880386		6.34974835		 0.00007629		 0.00037590		-0.00011187
O		6.40245853		3.29019547		6.17921614		 0.00009374		-0.00028337		-0.00002264
O		6.28035256		3.30552343		3.64267390		 0.00019528		-0.00019629		-0.00059458
O		8.24932122		1.80347731		3.80019106		-0.00001182		 0.00033826		 0.00032189
O		13.64167332		4.35797697		8.57013359		 0.00019528		 0.00019629		-0.00059458
O		1.58664326		0.75102236		7.60573107		-0.00001182		-0.00033826		 0.00032189
O		5.92466081		0.78167688		1.86144219		 0.00001097		 0.00055224		-0.00046215
O		8.32276460		4.32732245		2.05329145		-0.00026202		-0.00053500		 0.00006709
O		13.28598016		1.77282279		6.78890329		 0.00001097		-0.00055224		-0.00046215
O		1.66008523		3.33617654		5.85883147		-0.00026202		 0.00053500		 0.00006709
O		1.48978938		3.49966450		3.13794849		-0.00012984		 0.00026786		 0.00079899
O		13.02032454		1.60933483		4.06039220		-0.00011796		-0.00013171		-0.00007140
O		8.85111014		4.16383450		8.06540958		-0.00012984		-0.00026786		 0.00079899
O		6.35764236		0.94516483		7.86593222		-0.00011796		 0.00013171		-0.00007140
O		3.64832534		0.02452333		0.35260646		 0.00012871		 0.00021866		 0.00004861
O		10.38545542		5.08447740		0.89157535		 0.00008333		 0.00066302		-0.00016512
O		11.00964469		2.52997633		5.28006615		 0.00012871		-0.00021866		 0.00004861
O		3.72277605		2.57902300		4.69711536		 0.00008333		-0.00066302		-0.00016512
H		4.27706446		3.06539988		1.20987644		-0.00014026		-0.00006510		 0.00004362
H		9.88666423		2.04359945		1.65864459		-0.00013299		 0.00047819		-0.00010577
H		11.63838381		4.59810052		6.13733612		-0.00014026		 0.00006510		 0.00004362
H		3.22398345		0.51090021		5.46418460		-0.00013299		-0.00047819		-0.00010577
H		4.10086815		0.91962010		4.23276742		 0.00022609		 0.00020955		 0.00007771
H		10.55190768		4.18938063		4.74885058		 0.00068881		 0.00029665		-0.00033319
H		11.46218750		1.63487956		9.16022851		 0.00022609		-0.00020955		 0.00007771
H		3.88922830		3.47411977		8.55439060		 0.00068881		-0.00029665		-0.00033319
