# total energy = -49434.993015 eV

CRYSTAL
PRIMVEC
		14.02400496		0.00000000		2.24384704
		0.00000000		5.10900528		0.00000000
		1.39728622		0.00000000		8.73299628
PRIMECORD
   70 1
Mg		2.43495985		1.67524085		0.43469344		 0.00002817		-0.00033566		-0.00032192
Mg		11.60385108		3.43375874		1.90171615		-0.00013712		 0.00004957		 0.00052837
Mg		10.14559976		0.87925894		5.92311226		 0.00002817		 0.00033566		-0.00032192
Mg		5.29049029		4.22974065		5.14629645		-0.00013712		-0.00004957		 0.00052837
Mg		2.73406323		4.27010237		1.92830299		 0.00011426		 0.00052218		-0.00010177
Mg		11.77954295		0.83889864		3.37558014		 0.00008600		 0.00009375		-0.00041993
Mg		10.44470314		3.39339844		7.41672323		 0.00011426		-0.00052218		-0.00010177
Mg		5.46618358		1.71560258		6.62016044		 0.00008600		-0.00009375		-0.00041993
Mg		4.99677387		1.76822521		3.55824254		 0.00010839		-0.00033756		-0.00036101
Mg		9.93322174		3.34077439		4.34807340		-0.00001995		 0.00001945		-0.00065913
Mg		12.70741378		0.78627459		9.04666278		 0.00010839		 0.00033756		-0.00036101
Mg		3.61986237		4.32272501		7.59265512		-0.00001995		-0.00001945		-0.00065913
Mg		1.15778593		2.55449980		7.23616421		-0.00030302		-0.00003275		-0.00040726
Mg		7.47114530		0.00000000		3.99158391		-0.00030302		 0.00003275		-0.00040726
Mg		0.26129099		2.55449980		1.63307117		 0.00009115		 0.00030470		 0.00033472
Mg		7.97193090		0.00000000		7.12149141		 0.00009115		-0.00030470		 0.00033472
Mg		0.92569786		0.00000000		5.78561341		-0.00010625		-0.00023073		 0.00007622
Mg		7.23905723		2.55449980		2.54103311		-0.00010625		 0.00023073		 0.00007622
Mg		0.48275995		0.00000000		3.01725144		 0.00011046		-0.00004241		 0.00009877
Mg		8.19339985		2.55449980		8.50567026		 0.00011046		 0.00004241		 0.00009877
Si		0.01075830		0.00000000		0.06724397		 0.00003359		 0.00002550		 0.00022372
Si		7.72139821		2.55449980		5.55566421		 0.00003359		-0.00002550		 0.00022372
Si		5.28856445		0.07203727		0.88956845		 0.00009416		-0.00027432		-0.00000017
Si		8.74968690		5.03696232		1.44334736		-0.00012057		 0.00010823		-0.00004403
Si		12.99920436		2.48246252		6.37798868		 0.00009416		 0.00027432		-0.00000017
Si		2.43632754		2.62653707		4.68792765		-0.00012057		-0.00010823		-0.00004403
O		7.21250447		3.62125846		9.60897447		 0.00028814		 0.00000748		-0.00002004
O		9.58816942		1.48774113		9.98908251		 0.00005427		 0.00010793		 0.00063149
O		13.52586526		4.04224093		6.36439559		 0.00028814		-0.00000748		-0.00002004
O		1.87752951		1.06675867		4.50066227		 0.00005427		-0.00010793		 0.00063149
O		1.10506530		3.54104772		0.21935848		 0.00033476		 0.00027503		 0.00019129
O		12.93290627		1.56795187		2.11181185		-0.00010243		-0.00038082		-0.00016652
O		8.81570521		4.12245167		5.70777730		 0.00033476		-0.00027503		 0.00019129
O		6.61954690		0.98654793		5.35639214		-0.00010243		 0.00038082		-0.00016652
O		3.98118919		0.11239758		3.57359530		-0.00010716		-0.00009273		 0.00052831
O		11.00721225		4.99660202		4.69775996		-0.00006739		 0.00013037		-0.00018046
O		11.69182910		2.44210222		9.06201554		-0.00010716		 0.00009273		 0.00052831
O		4.69385288		2.66689737		7.94234025		-0.00006739		-0.00013037		-0.00018046
O		3.80528429		2.61580860		1.98737350		-0.00008281		-0.00053698		 0.00028158
O		10.67143408		2.49319242		3.08595826		-0.00004749		-0.00066526		-0.00017904
O		11.51592419		5.04769221		7.47579374		-0.00008281		 0.00053698		 0.00028158
O		4.35807471		0.06130738		6.33053856		-0.00004749		 0.00066526		-0.00017904
O		1.27974739		0.73569568		1.50755344		 0.00008246		-0.00062572		-0.00014824
O		13.17209978		4.37330392		3.41033051		-0.00013657		-0.00027623		 0.00032224
O		8.99038729		1.81880412		6.99597368		 0.00008246		 0.00062572		-0.00014824
O		6.85874042		3.29019548		6.65490938		-0.00013657		 0.00027623		 0.00032224
O		6.53319079		3.30552268		4.12487459		-0.00007992		-0.00046031		 0.00013932
O		8.50215943		1.80347692		4.43991020		 0.00013268		-0.00002013		-0.00024196
O		14.24383070		4.35797671		9.61329483		-0.00007992		 0.00046031		 0.00013932
O		2.18880007		0.75102288		7.68449050		 0.00013268		 0.00002013		-0.00024196
O		6.03637334		0.78167728		2.32647787		-0.00009147		 0.00003632		-0.00004102
O		8.43447661		4.32732231		2.71017484		 0.00012219		 0.00000418		 0.00046606
O		13.74701324		1.77282252		7.81489810		-0.00009147		-0.00003632		-0.00004102
O		2.12111724		3.33617708		5.95475514		 0.00012219		-0.00000418		 0.00046606
O		1.73284710		3.49966485		3.23768789		 0.00002853		 0.00038498		 0.00016430
O		13.26338127		1.60933474		5.08257324		-0.00027924		 0.00034983		-0.00009439
O		9.44348701		4.16383454		8.72610813		 0.00002853		-0.00038498		 0.00016430
O		6.95002048		0.94516505		8.32715354		-0.00027924		-0.00034983		-0.00009439
O		3.65321522		0.02452324		0.64408044		 0.00005834		 0.00002169		-0.00024805
O		10.39034640		5.08447636		1.72202063		 0.00009359		-0.00020963		 0.00022476
O		11.36385513		2.52997656		6.13250067		 0.00005834		-0.00002169		-0.00024805
O		4.07698561		2.57902303		4.96660235		 0.00009359		 0.00020963		 0.00022476
H		4.34692727		3.06540033		1.54645232		-0.00016630		-0.00052030		-0.00024114
H		9.95652783		2.04359927		2.44398830		-0.00010780		-0.00010194		-0.00016135
H		12.05756718		4.59810049		7.03487256		-0.00016630		 0.00052030		-0.00024114
H		3.64316846		0.51090053		5.68856859		-0.00010780		 0.00010194		-0.00016135
H		4.41525630		0.91962067		4.53568674		 0.00011574		-0.00025272		-0.00037299
H		10.86629631		4.18938035		5.56785269		-0.00002141		 0.00016303		 0.00019928
H		12.12589621		1.63488055		10.02410556		 0.00011574		 0.00025272		-0.00037299
H		4.55293552		3.47412046		8.81243299		-0.00002141		-0.00016303		 0.00019928
