# total energy = -18527.3753564 eV

CRYSTAL
PRIMVEC
		4.68600089		-0.56231897		0.00000000
		-2.82998250		4.33935433		0.00000000
		0.00000000		0.00000000		13.29099854
PRIMECORD
   30 1
O		1.40960522		-0.03876081		3.21110588		 0.00043433		-0.00043571		-0.00020284
O		0.44641080		3.81579617		10.07989409		-0.00043433		 0.00043571		 0.00020284
O		3.71848424		0.70531209		3.21110588		 0.00048973		 0.00030570		-0.00020206
O		-1.86246822		3.07172326		10.07989409		-0.00048973		-0.00030570		 0.00020206
O		1.41392698		2.54816416		3.21110588		 0.00039114		 0.00060240		-0.00014264
O		0.44208999		1.22887120		10.07989409		-0.00039114		-0.00060240		 0.00014264
O		3.59027816		1.03281116		7.64143935		 0.00045597		-0.00047897		-0.00022989
O		0.77106724		1.11033184		1.21922807		-0.00045247		 0.00046732		 0.00026920
O		1.21315581		2.33920398		7.64143935		 0.00051701		 0.00028446		-0.00021309
O		3.14818817		-0.19606004		1.21922807		-0.00052386		-0.00028650		 0.00026798
O		1.73858200		-0.15730017		7.64143935		 0.00039835		 0.00056871		-0.00015688
O		2.62276198		2.30044317		1.21922807		-0.00041682		-0.00057133		 0.00019532
O		1.08495020		2.66670305		12.07177330		 0.00045247		-0.00046732		-0.00026920
O		-1.73426119		2.74422420		5.64956108		-0.00045597		 0.00047897		 0.00022989
O		-1.29217120		3.97309493		12.07177330		 0.00052386		 0.00028650		-0.00026798
O		0.64286021		1.43783090		5.64956108		-0.00051701		-0.00028446		 0.00021309
O		-0.76674501		1.47659219		12.07177330		 0.00041682		 0.00057133		-0.00019532
O		0.11743403		3.93433506		5.64956108		-0.00039835		-0.00056871		 0.00015688
Mg		0.00000000		0.00000000		4.76615323		 0.00060609		-0.00049069		 0.00027599
Mg		0.00000000		0.00000000		8.52484720		-0.00060609		 0.00049069		-0.00027599
Mg		2.18067199		1.07157197		9.19648623		 0.00063606		-0.00052184		 0.00030359
Mg		2.18067199		1.07157197		12.95518115		-0.00061317		 0.00053715		-0.00034744
Mg		-0.32465597		2.70546291		0.33581881		 0.00061317		-0.00053715		 0.00034744
Mg		-0.32465597		2.70546291		4.09451420		-0.00063606		 0.00052184		-0.00030359
Si		0.00000000		0.00000000		2.08668692		 0.00031198		-0.00017094		-0.00026252
Si		0.00000000		0.00000000		11.20431351		-0.00031198		 0.00017094		 0.00026252
Si		2.18067199		1.07157197		6.51702134		 0.00031648		-0.00021973		-0.00029013
Si		2.18067199		1.07157197		2.34364609		-0.00033141		 0.00023833		 0.00029430
Si		-0.32465597		2.70546291		10.94735434		 0.00033141		-0.00023833		-0.00029430
Si		-0.32465597		2.70546291		6.77398004		-0.00031648		 0.00021973		 0.00029013
