# total energy = -18533.7663098 eV

CRYSTAL
PRIMVEC
		4.68600010		-0.18743982		0.00000000
		-2.50532862		4.15191293		0.00000000
		0.00000000		0.00000000		13.29100152
PRIMECORD
   30 1
O		1.42018911		0.07527795		3.21110602		-0.00006267		 0.00058777		 0.00018147
O		0.76048284		3.88919704		10.07989362		 0.00006267		-0.00058777		-0.00018147
O		3.81195315		1.01400682		3.21110602		-0.00074325		 0.00040211		-0.00016361
O		-1.63127979		2.95046816		10.07989362		 0.00074325		-0.00040211		 0.00016361
O		1.63452979		2.68774993		3.21110602		 0.00000739		-0.00007254		-0.00059965
O		0.54614217		1.27672506		10.07989362		-0.00000739		 0.00007254		 0.00059965
O		3.70907980		1.33428983		7.64143893		-0.00006351		 0.00058146		 0.00018026
O		0.86870110		1.18373393		1.21922782		 0.00006920		-0.00059599		-0.00017999
O		1.41484280		2.46045899		7.64143893		-0.00073686		 0.00039685		-0.00016098
O		3.16293810		0.05756477		1.21922782		 0.00073944		-0.00040298		 0.00016087
O		1.74274899		-0.01771318		7.64143893		 0.00001011		-0.00007428		-0.00059211
O		2.83503191		2.53573600		1.21922782		-0.00000626		 0.00007580		 0.00059211
O		1.31197085		2.78074105		12.07177277		-0.00006920		 0.00059599		 0.00017999
O		-1.52840784		2.63018516		5.64956072		 0.00006351		-0.00058146		-0.00018026
O		-0.98226615		3.90690975		12.07177277		-0.00073944		 0.00040298		-0.00016087
O		0.76582915		1.50401694		5.64956072		 0.00073686		-0.00039685		 0.00016098
O		-0.65435996		1.42873899		12.07177277		 0.00000626		-0.00007580		-0.00059211
O		0.43792297		3.98218769		5.64956072		-0.00001011		 0.00007428		 0.00059211
Mg		0.00000000		0.00000000		4.76615304		-0.00060029		 0.00024747		 0.00054402
Mg		0.00000000		0.00000000		8.52484661		 0.00060029		-0.00024747		-0.00054402
Mg		2.28889115		1.25901188		9.19648594		-0.00059451		 0.00023834		 0.00055326
Mg		2.28889115		1.25901188		12.95518092		 0.00059621		-0.00024051		-0.00051133
Mg		-0.10821920		2.70546311		0.33581920		-0.00059621		 0.00024051		 0.00051133
Mg		-0.10821920		2.70546311		4.09451371		 0.00059451		-0.00023834		-0.00055326
Si		0.00000000		0.00000000		2.08668708		-0.00091947		-0.00039855		-0.00017044
Si		0.00000000		0.00000000		11.20431257		 0.00091947		 0.00039855		 0.00017044
Si		2.28889115		1.25901188		6.51702092		-0.00091738		-0.00039557		-0.00018214
Si		2.28889115		1.25901188		2.34364583		 0.00091884		 0.00039119		 0.00018722
Si		-0.10821920		2.70546311		10.94735382		-0.00091884		-0.00039119		-0.00018722
Si		-0.10821920		2.70546311		6.77397967		 0.00091738		 0.00039557		 0.00018214
