# total energy = -21541.9984222 eV	

CRYSTAL	
PRIMVEC	
		5.18479989		0.00000000		0.00000000	
		0.00000000		8.92299913		0.35692162	
		-0.14435001		0.25685499		9.18377382	
PRIMCOORD
   42 1	
Mg		0.00000000		0.00000000		0.00000000		0.00000000		0.00000000		0.00000000	
Mg		2.59239994		4.46150008		0.17845978		0.00000000		0.00000000		0.00000000	
Mg		2.59239994		1.48648316		0.05945877		 0.00010701		 0.00015980		 0.00005321	
Mg		2.59239994		7.43651804		0.29746078		-0.00010701		-0.00015980		-0.00005321	
Mg		0.00000000		5.94798273		0.23791906		 0.00010784		 0.00015184		 0.00005649	
Mg		0.00000000		2.97501692		0.11900101		-0.00010784		-0.00015184		-0.00005649	
Si		4.28040591		1.56337012		2.73202298		-0.00002278		 0.00004665		 0.00008435	
Si		0.76004293		7.61648763		6.80866988		 0.00002278		-0.00004665		-0.00008435	
Si		1.68800597		6.02486968		2.91048275		-0.00001843		 0.00002501		 0.00006772	
Si		3.35244287		3.15498806		6.63021010		 0.00001843		-0.00002501		-0.00006772	
Si		1.68800597		3.04762071		2.79139308		 0.00000341		 0.00007705		 0.00032862	
Si		3.35244287		6.13223600		6.74929977		-0.00000341		-0.00007705		-0.00032862	
Si		4.28040591		7.50912183		2.96985286		-0.00000566		-0.00001712		 0.00033561	
Si		0.76004293		1.67073592		6.57084000		 0.00000566		 0.00001712		-0.00033561	
O		1.71272606		3.00183270		1.19887713		 0.00020413		-0.00016113		-0.00004489	
O		3.32772382		6.17802400		8.34181572		-0.00020413		 0.00016113		 0.00004489	
O		4.30512600		7.46333279		1.37733691		 0.00020451		-0.00015232		-0.00005042	
O		0.73532387		1.71652392		8.16335595		-0.00020451		 0.00015232		 0.00005042	
O		4.30512600		1.52016881		1.13961020		 0.00017694		-0.00020929		-0.00003423	
O		0.73532387		7.65968790		8.40108162		-0.00017694		 0.00020929		 0.00003423	
O		1.71272606		5.98166889		1.31806998		 0.00017684		-0.00020385		-0.00003936	
O		3.32772382		3.19818781		8.22262184		-0.00017684		 0.00020385		 0.00003936	
O		1.71012899		0.02892185		1.03409278		-0.00007155		 0.00000545		-0.00013616	
O		3.33031985		0.22793521		8.14968000		 0.00007155		-0.00000545		 0.00013616	
O		4.30252893		4.49042193		1.21255308		-0.00006964		 0.00000097		-0.00008529	
O		0.73792094		4.68943477		8.32813978		 0.00006964		-0.00000097		 0.00008529	
O		1.77272715		4.55091196		3.37533117		 0.00003227		-0.00002505		 0.00006730	
O		3.26772168		4.62894475		6.16536065		-0.00003227		 0.00002505		-0.00006730	
O		4.36512710		0.08941187		3.19687088		 0.00003769		 0.00003193		 0.00008365	
O		0.67532174		0.16744519		5.98690087		-0.00003769		-0.00003193		-0.00008365	
O		2.93016995		2.23997095		3.29023201		-0.00011626		-0.00000946		 0.00017022	
O		2.11027888		6.93988576		6.25046084		 0.00011626		 0.00000946		-0.00017022	
O		0.33777001		6.70147103		3.46869179		-0.00017160		 0.00002980		 0.00016724	
O		4.70267986		2.47838619		6.07200107		 0.00017160		-0.00002980		-0.00016724	
O		0.33771816		2.40076404		3.29666376		 0.00017644		 0.00004690		 0.00023229	
O		4.70273067		6.77909371		6.24402910		-0.00017644		-0.00004690		-0.00023229	
O		2.93011914		6.86226360		3.47512405		 0.00022423		 0.00008014		 0.00023054	
O		2.11033073		2.31759414		6.06556881		-0.00022423		-0.00008014		-0.00023054	
H		1.69733912		0.06579407		1.86485171		-0.00003036		 0.00034411		-0.00073782	
H		3.34311075		9.11406263		7.67584062		 0.00003036		-0.00034411		 0.00073782	
H		4.28973907		4.52729416		2.04331201		-0.00003127		 0.00034779		-0.00078297	
H		0.75071081		4.65256307		7.49738085		 0.00003127		-0.00034779		 0.00078297	
