# total energy = -21542.1333906 eV	

CRYSTAL	
PRIMVEC	
		5.18479989		0.00000000		0.00000000	
		0.00000000		8.92299913		0.71383806	
		-0.14435001		0.62438471		9.17934600	
PRIMCOORD
   42 1	
Mg		0.00000000		0.00000000		0.00000000		0.00000000		0.00000000		0.00000000	
Mg		2.59239994		4.46150008		0.35692007		0.00000000		0.00000000		0.00000000	
Mg		2.59239994		1.48648316		0.11891909		 0.00008011		-0.00002533		 0.00013754	
Mg		2.59239994		7.43651804		0.59492105		-0.00008011		 0.00002533		-0.00013754	
Mg		0.00000000		5.94798273		0.47583916		 0.00008123		-0.00011315		 0.00014725	
Mg		0.00000000		2.97501692		0.23800098		-0.00008123		 0.00011315		-0.00014725	
Si		4.28040591		1.67032010		2.79027991		 0.00003771		-0.00010645		-0.00011519	
Si		0.76004293		7.87706478		7.10290572		-0.00003771		 0.00010645		 0.00011519	
Si		1.68800597		6.13181966		3.14719997		 0.00006229		-0.00041939		-0.00018953	
Si		3.35244287		3.41556470		6.74598565		-0.00006229		 0.00041939		 0.00018953	
Si		1.68800597		3.15457172		2.90902012		 0.00024177		 0.00022245		-0.00010166	
Si		3.35244287		6.39281263		6.98416602		-0.00024177		-0.00022245		 0.00010166	
Si		4.28040591		7.61607180		3.26594019		 0.00014430		-0.00036837		-0.00002976	
Si		0.76004293		1.93131307		6.62724595		-0.00014430		 0.00036837		 0.00002976	
O		1.71272606		3.04505371		1.31722122		 0.00042060		-0.00017273		-0.00042605	
O		3.32772382		6.50233064		8.57596388		-0.00042060		 0.00017273		 0.00042605	
O		4.30512600		7.50655483		1.67414077		 0.00043021		-0.00012107		-0.00043099	
O		0.73532387		2.04083108		8.21904381		-0.00043021		 0.00012107		 0.00043099	
O		4.30512600		1.56338982		1.19868788		-0.00012377		 0.00037096		-0.00059174	
O		0.73532387		7.98399506		8.69449670		 0.00012377		-0.00037096		 0.00059174	
O		1.71272606		6.02489094		1.55560795		-0.00013247		 0.00041468		-0.00066771	
O		3.32772382		3.52249497		8.33757663		 0.00013247		-0.00041468		 0.00066771	
O		1.71012899		0.07030589		1.03359401		 0.00039271		-0.00001688		 0.00031417	
O		3.33031985		0.55407882		8.14575200		-0.00039271		 0.00001688		-0.00031417	
O		4.30252893		4.53180597		1.39051407		 0.00040756		 0.00004237		-0.00047184	
O		0.73792094		5.01557994		8.50267207		-0.00040756		-0.00004237		 0.00047184	
O		1.77272715		4.67884897		3.55225002		 0.00046376		 0.00028987		 0.00018010	
O		3.26772168		4.86853695		6.34093508		-0.00046376		-0.00028987		-0.00018010	
O		4.36512710		0.21734785		3.19532995		 0.00050650		 0.00048634		 0.00029472	
O		0.67532174		0.40703686		5.98401501		-0.00050650		-0.00048634		-0.00029472	
O		2.93016995		2.36820194		3.37470173		 0.00048041		 0.00004082		 0.00023780	
O		2.11027888		7.17918398		6.51848389		-0.00048041		-0.00004082		-0.00023780	
O		0.33777001		6.82970202		3.73162180		 0.00012007		 0.00031660		 0.00022584	
O		4.70267986		2.71768389		6.16156382		-0.00012007		-0.00031660		-0.00022584	
O		0.33771816		2.52899399		3.38756470		 0.00002068		-0.00044427		-0.00008817	
O		4.70273067		7.01839192		6.50562092		-0.00002068		 0.00044427		 0.00008817	
O		2.93011914		6.99049407		3.74448477		 0.00041338		-0.00016272		-0.00008958	
O		2.11033073		2.55689080		6.14870085		-0.00041338		 0.00016272		 0.00008958	
H		1.69733912		0.14040179		1.86449915		-0.00007822		 0.00031917		-0.00060064	
H		3.34311075		9.40698257		8.02868596		 0.00007822		-0.00031917		 0.00060064	
H		4.28973907		4.60190187		2.22141870		-0.00007890		 0.00026805		 0.00010256	
H		0.75071081		4.94548301		7.67176589		 0.00007890		-0.00026805		-0.00010256	
