# total energy = -21541.724916 eV	

CRYSTAL	
PRIMVEC	
		5.18479989		0.00000000		0.00000000	
		0.00000000		8.92299913		1.07075969	
		-0.14435001		0.99191444		9.17491818	
PRIMCOORD
   42 1	
Mg		0.00000000		0.00000000		0.00000000		0.00000000		0.00000000		0.00000000	
Mg		2.59239994		4.46150008		0.53537984		0.00000000		0.00000000		0.00000000	
Mg		2.59239994		1.48648316		0.17837786		-0.00033393		 0.00031560		 0.00025826	
Mg		2.59239994		7.43651804		0.89238183		 0.00033393		-0.00031560		-0.00025826	
Mg		0.00000000		5.94798273		0.71375822		-0.00032834		 0.00022020		 0.00028158	
Mg		0.00000000		2.97501692		0.35700199		 0.00032834		-0.00022020		-0.00028158	
Si		4.28040591		1.77727111		2.84853580		 0.00022641		 0.00013369		 0.00013577	
Si		0.76004293		8.13764297		7.39714259		-0.00022641		-0.00013369		-0.00013577	
Si		1.68800597		6.23877067		3.38391616		 0.00022183		-0.00019155		-0.00000122	
Si		3.35244287		3.67614185		6.86176275		-0.00022183		 0.00019155		 0.00000122	
Si		1.68800597		3.26152274		3.02664715		 0.00050947		 0.00054430		 0.00022738	
Si		3.35244287		6.65339083		7.21903175		-0.00050947		-0.00054430		-0.00022738	
Si		4.28040591		7.72302282		3.56202700		 0.00030565		-0.00037662		 0.00036007	
Si		0.76004293		2.19189074		6.68365191		-0.00030565		 0.00037662		-0.00036007	
O		1.71272606		3.08827576		1.43556584		 0.00072490		-0.00020758		 0.00036024	
O		3.32772382		6.82663780		8.81011255		-0.00072490		 0.00020758		-0.00036024	
O		4.30512600		7.54977584		1.97094620		 0.00073221		-0.00011350		 0.00027980	
O		0.73532387		2.36513772		8.27473271		-0.00073221		 0.00011350		-0.00027980	
O		4.30512600		1.60661187		1.25776609		 0.00016926		 0.00008423		 0.00021406	
O		0.73532387		8.30830170		8.98791282		-0.00016926		-0.00008423		-0.00021406	
O		1.71272606		6.06811195		1.79314593		 0.00016136		 0.00015434		 0.00012968	
O		3.32772382		3.84680213		8.45253298		-0.00016136		-0.00015434		-0.00012968	
O		1.71012899		0.11168889		1.03309575		 0.00042595		-0.00044919		-0.00044416	
O		3.33031985		0.88022400		8.14182296		-0.00042595		 0.00044919		 0.00044416	
O		4.30252893		4.57319000		1.56847611		 0.00042989		-0.00047748		-0.00037863	
O		0.73792094		5.34172408		8.67720280		-0.00042989		 0.00047748		 0.00037863	
O		1.77272715		4.80678494		3.72916887		 0.00011116		-0.00027913		 0.00018010	
O		3.26772168		5.10812810		6.51651004		-0.00011116		 0.00027913		-0.00018010	
O		4.36512710		0.34528486		3.19378903		 0.00015757		 0.00015391		 0.00035629	
O		0.67532174		0.64662802		5.98112967		-0.00015757		-0.00015391		-0.00035629	
O		2.93016995		2.49643189		3.45917198		 0.00066717		-0.00010878		-0.00010651	
O		2.11027888		7.41848064		6.78650797		-0.00066717		 0.00010878		 0.00010651	
O		0.33777001		6.95793197		3.99455182		 0.00017510		 0.00025596		-0.00013195	
O		4.70267986		2.95698107		6.25112761		-0.00017510		-0.00025596		 0.00013195	
O		0.33771816		2.65722498		3.47846669		 0.00016733		-0.00047255		-0.00064774	
O		4.70273067		7.25768859		6.76721274		-0.00016733		 0.00047255		 0.00064774	
O		2.93011914		7.11872506		4.01384705		 0.00078106		-0.00006217		-0.00065266	
O		2.11033073		2.79618902		6.23183289		-0.00078106		 0.00006217		 0.00065266	
H		1.69733912		0.21501106		1.86414710		-0.00006930		 0.00020590		-0.00001419	
H		3.34311075		9.69990302		8.38153181		 0.00006930		-0.00020590		 0.00001419	
H		4.28973907		4.67651114		2.39952694		-0.00007873		 0.00023014		-0.00007124	
H		0.75071081		5.23840294		7.84615197		 0.00007873		-0.00023014		 0.00007124	
