# total energy = -11142.7024811 eV	

CRYSTAL	
PRIMVEC	
		7.44099980		0.00000000		0.00000000	
		0.00000000		4.40999782		-0.70560025	
		0.00000000		-1.32672282		8.29199718	
PRIMCOORD
   12 1	
Ca		0.14547229		0.19944112		5.46771585		 0.00020345		-0.00006320		-0.00013548	
Ca		7.29552751		2.88383760		2.11868406		-0.00020345		 0.00006320		 0.00013548	
Ca		3.57502761		3.06780070		0.96891565		-0.00020345		-0.00006320		-0.00013548	
Ca		3.86597219		0.01547877		6.61748351		 0.00020345		 0.00006320		 0.00013548	
Si		2.01346014		0.59091733		3.02099457		 0.00035290		 0.00085219		-0.00035440	
Si		5.42753966		2.49236288		4.56540459		-0.00035290		-0.00085219		 0.00035440	
Si		1.70703976		2.13255706		6.81419453		-0.00035290		 0.00085219		-0.00035440	
Si		5.73396003		0.95072315		0.77220464		 0.00035290		-0.00085219		 0.00035440	
Mg		1.07254571		1.01782906		0.35279491		 0.00023943		-0.00039954		-0.00044812	
Mg		6.36845409		2.06545114		7.23360351		-0.00023943		 0.00039954		 0.00044812	
Mg		2.64795419		2.55946879		4.14599487		-0.00023943		-0.00039954		-0.00044812	
Mg		4.79304561		0.52381067		3.44040355		 0.00023943		 0.00039954		 0.00044812	
