# total energy = -11144.4249328 eV	

CRYSTAL	
PRIMVEC	
		7.44099980		0.00000000		0.00000000	
		0.00000000		4.40999782		-0.52919646	
		0.00000000		-0.99504026		8.29199718	
PRIMCOORD
   12 1	
Ca		0.14547229		0.42520626		5.51181568		-0.00056581		-0.00028568		-0.00060398	
Ca		7.29552751		2.98975428		2.25098429		 0.00056581		 0.00028568		 0.00060398	
Ca		3.57502761		3.12772604		1.10121588		 0.00056581		-0.00028568		-0.00060398	
Ca		3.86597219		0.28723375		6.66158409		-0.00056581		 0.00028568		 0.00060398	
Si		2.01346014		0.71881323		3.06509515		 0.00016783		 0.00061720		 0.00086721	
Si		5.42753966		2.69614657		4.69770482		-0.00016783		-0.00061720		-0.00086721	
Si		1.70703976		2.42629276		6.94649476		-0.00016783		 0.00061720		 0.00086721	
Si		5.73396003		0.98866704		0.81630521		 0.00016783		-0.00061720		-0.00086721	
Mg		1.07254571		1.03899722		0.39689474		 0.00058001		-0.00054450		-0.00020813	
Mg		6.36845409		2.37596258		7.36590374		-0.00058001		 0.00054450		 0.00020813	
Mg		2.64795419		2.74647600		4.27829510		-0.00058001		-0.00054450		-0.00020813	
Mg		4.79304561		0.66848305		3.48450413		 0.00058001		 0.00054450		 0.00020813	
