# total energy = -11145.7127179 eV	

CRYSTAL	
PRIMVEC	
		7.44099980		0.00000000		0.00000000	
		0.00000000		4.40999782		-0.35280012	
		0.00000000		-0.66335769		8.29199718	
PRIMCOORD
   12 1	
Ca		0.14547229		0.65097066		5.55591551		-0.00047511		-0.00003801		-0.00035965	
Ca		7.29552751		3.09566873		2.38328378		 0.00047511		 0.00003801		 0.00035965	
Ca		3.57502761		3.18765065		1.23351612		 0.00047511		-0.00003801		-0.00035965	
Ca		3.86597219		0.55898874		6.70568392		-0.00047511		 0.00003801		 0.00035965	
Si		2.01346014		0.84670765		3.10919498		-0.00032538		-0.00039884		 0.00034336	
Si		5.42753966		2.89993100		4.83000506		 0.00032538		 0.00039884		-0.00034336	
Si		1.70703976		2.72002771		7.07879499		 0.00032538		-0.00039884		 0.00034336	
Si		5.73396003		1.02661167		0.86040504		-0.00032538		 0.00039884		-0.00034336	
Mg		1.07254571		1.06016389		0.44099532		 0.00038349		 0.00012880		 0.00054330	
Mg		6.36845409		2.68647624		7.49820397		-0.00038349		-0.00012880		-0.00054330	
Mg		2.64795419		2.93348395		4.41059459		-0.00038349		 0.00012880		 0.00054330	
Mg		4.79304561		0.81315618		3.52860395		 0.00038349		-0.00012880		-0.00054330	
