# total energy = -24716.2550316 eV	

CRYSTAL	
PRIMVEC	
		9.27320033		0.00000000		0.37092764	
		0.00000000		8.72659991		0.00000000	
		0.21286948		0.00000000		5.32169984	
PRIMCOORD
   40 1	
Mg		0.05321691		7.89582705		1.33042542		0.00000000		-0.00060793		0.00000000	
Mg		0.15965072		0.83077193		3.99127535		0.00000000		 0.00060793		0.00000000	
Mg		4.79625088		5.19407189		4.17673917		0.00000000		-0.00003783		0.00000000	
Mg		4.68981707		3.53252802		1.51588925		0.00000000		 0.00003783		0.00000000	
Mg		0.05321691		2.30993129		1.33042542		0.00000000		 0.00004729		0.00000000	
Mg		0.15965072		6.41666863		3.99127535		0.00000000		-0.00004729		0.00000000	
Mg		4.79625088		2.05336867		4.17673917		0.00000000		-0.00039577		0.00000000	
Mg		4.68981707		6.67323124		1.51588925		0.00000000		 0.00039577		0.00000000	
Si		2.72009737		0.79935705		0.46266189		-0.00013973		 0.00036837		-0.00014626	
Si		6.76597058		7.92724287		5.22996560		 0.00013973		-0.00036837		 0.00014626	
Si		2.05129074		3.56394291		3.09250342		-0.00035268		 0.00008170		-0.00030990	
Si		7.43477721		5.16265608		2.60012593		 0.00035268		-0.00008170		 0.00030990	
Si		6.65953677		0.79935705		2.56911568		 0.00013973		 0.00036837		 0.00014626	
Si		2.82653118		7.92724287		3.12351181		-0.00013973		-0.00036837		-0.00014626	
Si		7.54121102		3.56394291		5.26097585		 0.00035268		 0.00008170		 0.00030990	
Si		1.94485693		5.16265608		0.43165164		-0.00035268		-0.00008170		-0.00030990	
O		1.10460485		0.81681018		0.46498761		-0.00016775		 0.00024146		-0.00007089	
O		8.38146310		7.90978974		5.22763895		 0.00016775		-0.00024146		 0.00007089	
O		3.67214653		3.54648978		3.22428259		 0.00001516		-0.00081405		-0.00022235	
O		5.81392142		5.18010920		2.46834490		-0.00001516		 0.00081405		 0.00022235	
O		8.27502929		0.81681018		2.56678996		 0.00016775		 0.00024146		 0.00007089	
O		1.21103866		7.90978974		3.12583939		-0.00016775		-0.00024146		-0.00007089	
O		5.92035523		3.54648978		5.12919482		-0.00001516		-0.00081405		 0.00022235	
O		3.56571272		5.18010920		0.56343267		 0.00001516		 0.00081405		-0.00022235	
O		3.50811536		2.18688610		0.51224822		 0.00007352		 0.00032215		 0.00025984	
O		5.97795166		6.53971381		5.18038113		-0.00007352		-0.00032215		-0.00025984	
O		1.26471959		2.17641386		3.07910406		 0.00049046		 0.00087437		 0.00000514	
O		8.22134836		6.55018606		2.61352435		-0.00049046		-0.00087437		-0.00000514	
O		5.87151785		2.18688610		2.51953028		-0.00007352		 0.00032215		-0.00025984	
O		3.61454918		6.53971381		3.17309814		 0.00007352		-0.00032215		 0.00025984	
O		8.32778217		2.17641386		5.27437427		-0.00049046		 0.00087437		-0.00000514	
O		1.15828578		6.55018606		0.41825414		 0.00049046		-0.00087437		 0.00000514	
O		3.30903595		8.50232549		1.66893495		-0.00013013		 0.00031927		-0.00045832	
O		6.17703200		0.22427257		4.02369254		 0.00013013		-0.00031927		 0.00045832	
O		1.55712116		4.58757253		4.25545085		-0.00005348		-0.00018472		-0.00010066	
O		7.92894679		4.13902553		1.43717663		 0.00005348		 0.00018472		 0.00010066	
O		6.07059819		8.50232549		1.36284262		 0.00013013		 0.00031927		 0.00045832	
O		3.41546976		0.22427257		4.32978487		-0.00013013		-0.00031927		-0.00045832	
O		8.03538060		4.58757253		4.09802656		 0.00005348		-0.00018472		 0.00010066	
O		1.45068735		4.13902553		1.59460093		-0.00005348		 0.00018472		-0.00010066	
