# total energy = -20634.9777435 eV

CRYSTAL
PRIMVEC
		4.27139982		0.00000000		0.00000000
		0.00000000		10.18000157		0.00000000
		0.00000000		0.00000000		5.97600016
PRIMECORD
   28 1
Si		1.82004304		0.95590212		1.49399983		 0.00032370		 0.00000060		0.00000000
Si		2.45135593		9.22409774		4.48199991		-0.00032370		-0.00000060		0.00000000
Si		3.95574295		4.13409781		4.48199991		 0.00032370		-0.00000060		0.00000000
Si		0.31565687		6.04590162		1.49399983		-0.00032370		 0.00000060		0.00000000
Mg		0.00000000		0.00000000		0.00000000		0.00000000		-0.00000000		0.00000000
Mg		2.13569991		5.08999993		0.00000000		-0.00000000		-0.00000000		-0.00000000
Mg		0.00000000		0.00000000		2.98800008		0.00000000		-0.00000000		0.00000000
Mg		2.13569991		5.08999993		2.98800008		0.00000000		-0.00000000		-0.00000000
Mg		4.23466578		2.82189602		1.49399983		 0.00004481		 0.00006790		-0.00000000
Mg		0.03673404		7.35810384		4.48199991		-0.00004481		-0.00006790		0.00000000
Mg		2.09896587		2.26810391		4.48199991		 0.00004481		-0.00006790		0.00000000
Mg		2.17243395		7.91189552		1.49399983		-0.00004481		 0.00006790		0.00000000
O		3.27231898		0.93554206		1.49399983		 0.00007394		-0.00003758		0.00000000
O		0.99907999		9.24445780		4.48199991		-0.00007394		 0.00003758		0.00000000
O		1.13661907		4.15445787		4.48199991		 0.00007394		 0.00003758		-0.00000000
O		3.13477990		6.02554157		1.49399983		-0.00007394		-0.00003758		0.00000000
O		0.94056181		4.54944190		1.49399983		 0.00051639		 0.00023509		0.00000000
O		3.33083801		5.63055796		4.48199991		-0.00051639		-0.00023509		0.00000000
O		3.07626173		0.54055803		4.48199991		 0.00051639		-0.00023509		0.00000000
O		1.19513810		9.63944140		1.49399983		-0.00051639		 0.00023509		0.00000000
O		1.18616816		1.65730399		0.19900110		-0.00035625		-0.00007440		 0.00047172
O		3.08523166		8.52269545		5.77699864		 0.00035625		 0.00007440		-0.00047172
O		3.32186807		3.43269594		5.77699864		-0.00035625		 0.00007440		-0.00047172
O		0.94953175		6.74730392		0.19900110		 0.00035625		-0.00007440		 0.00047172
O		3.08523166		8.52269545		3.18700076		 0.00035625		 0.00007440		 0.00047172
O		1.18616816		1.65730399		2.78899898		-0.00035625		-0.00007440		-0.00047172
O		0.94953175		6.74730392		2.78899898		 0.00035625		-0.00007440		-0.00047172
O		3.32186807		3.43269594		3.18700076		-0.00035625		 0.00007440		 0.00047172
