# total energy = -20638.5118677 eV

CRYSTAL
PRIMVEC
		4.62734981		0.00000000		0.00000000
		0.00000000		10.17999837		0.00000000
		0.00000000		0.00000000		5.97600016
PRIMECORD
   28 1
Si		1.97171375		0.95590219		1.49400004		 0.00025317		 0.00029951		-0.00000000
Si		2.65563605		9.22409756		4.48199966		-0.00025317		-0.00029951		-0.00000000
Si		4.28538866		4.13409792		4.48199966		 0.00025317		-0.00029951		0.00000000
Si		0.34196115		6.04590184		1.49400004		-0.00025317		 0.00029951		0.00000000
Mg		0.00000000		0.00000000		0.00000000		0.00000000		0.00000000		0.00000000
Mg		2.31367490		5.08999965		0.00000000		0.00000000		0.00000000		0.00000000
Mg		0.00000000		0.00000000		2.98800008		0.00000000		0.00000000		0.00000000
Mg		2.31367490		5.08999965		2.98800008		0.00000000		0.00000000		0.00000000
Mg		4.58755460		2.82189581		1.49400004		-0.00050525		-0.00093524		0.00000000
Mg		0.03979521		7.35810348		4.48199966		 0.00050525		 0.00093524		0.00000000
Mg		2.27387970		2.26810384		4.48199966		-0.00050525		 0.00093524		-0.00000000
Mg		2.35347011		7.91189545		1.49400004		 0.00050525		-0.00093524		0.00000000
O		3.54501269		0.93554185		1.49400004		-0.00017527		 0.00072534		0.00000000
O		1.08233712		9.24445744		4.48199966		 0.00017527		-0.00072534		0.00000000
O		1.23133778		4.15445779		4.48199966		-0.00017527		-0.00072534		-0.00000000
O		3.39601202		6.02554196		1.49400004		 0.00017527		 0.00072534		0.00000000
O		1.01894196		4.54944190		1.49400004		-0.00045901		-0.00008745		0.00000000
O		3.60840692		5.63055786		4.48199966		 0.00045901		 0.00008745		0.00000000
O		3.33261687		0.54055775		4.48199966		-0.00045901		 0.00008745		-0.00000000
O		1.29473201		9.63944154		1.49400004		 0.00045901		-0.00008745		0.00000000
O		1.28501504		1.65730384		0.19900103		-0.00077326		 0.00067240		-0.00023152
O		3.34233477		8.52269545		5.77699867		 0.00077326		-0.00067240		 0.00023152
O		3.59868995		3.43269580		5.77699867		-0.00077326		-0.00067240		 0.00023152
O		1.02865986		6.74730349		0.19900103		 0.00077326		 0.00067240		-0.00023152
O		3.34233477		8.52269545		3.18700065		 0.00077326		-0.00067240		-0.00023152
O		1.28501504		1.65730384		2.78899905		-0.00077326		 0.00067240		 0.00023152
O		1.02865986		6.74730349		2.78899905		 0.00077326		 0.00067240		 0.00023152
O		3.59868995		3.43269580		3.18700065		-0.00077326		-0.00067240		-0.00023152
