# total energy = -66810.5166214 eV

CRYSTAL
PRIMVEC
		20.17773884		0.00000000		0.00000000
		0.00000000		6.73129368		0.00000000
		0.00000000		0.00000000		10.88439695
PRIMECORD
   112 1
Ca		15.58911925		6.72409628		2.52060919		 0.00007971		 0.00015475		 0.00023690
Ca		4.58861959		0.00720345		8.36379180		-0.00007971		-0.00015475		-0.00023690
Ca		4.58861959		0.00720345		2.52060919		-0.00007971		-0.00015475		 0.00023690
Ca		15.58911925		6.72409628		8.36379180		 0.00007971		 0.00015475		-0.00023690
Ca		14.67748901		3.35844742		2.92159130		-0.00007971		 0.00015475		-0.00023690
Ca		5.50024983		3.37285231		7.96280968		 0.00007971		-0.00015475		 0.00023690
Ca		5.50024983		3.37285231		2.92159130		 0.00007971		-0.00015475		-0.00023690
Ca		14.67748901		3.35844742		7.96280968		-0.00007971		 0.00015475		 0.00023690
Ca		8.31100885		1.06469050		8.14849734		-0.00008788		-0.00008103		 0.00021721
Ca		11.86672797		5.66660923		2.73590364		 0.00008788		 0.00008103		-0.00021721
Ca		11.86672797		5.66660923		8.14849734		 0.00008788		 0.00008103		 0.00021721
Ca		8.31100885		1.06469050		2.73590364		-0.00008788		-0.00008103		-0.00021721
Ca		1.77786057		4.43033935		8.17810212		 0.00008788		-0.00008103		-0.00021721
Ca		18.39987827		2.30096038		2.70629685		-0.00008788		 0.00008103		 0.00021721
Ca		18.39987827		2.30096038		8.17810212		-0.00008788		 0.00008103		-0.00021721
Ca		1.77786057		4.43033935		2.70629685		 0.00008788		-0.00008103		 0.00021721
Ca		6.71454615		5.40388700		0.00000000		 0.00007554		-0.00020586		-0.00000000
Ca		13.46319268		1.32741273		0.00000000		-0.00007554		 0.00020586		0.00000000
Ca		3.37432327		2.03823815		5.44220049		-0.00007554		-0.00020586		0.00000000
Ca		16.80341557		4.69306158		5.44220049		 0.00007554		 0.00020586		0.00000000
Ca		13.58526800		1.15643666		5.44220049		-0.00013232		-0.00031748		0.00000000
Ca		6.59247083		5.57486105		5.44220049		 0.00013232		 0.00031748		0.00000000
Ca		16.68134025		4.52208753		0.00000000		 0.00013232		-0.00031748		0.00000000
Ca		3.49639859		2.20921220		0.00000000		-0.00013232		 0.00031748		0.00000000
Ca		10.08886942		3.36565087		0.00000000		0.00000000		0.00000000		0.00000000
Ca		0.00000000		0.00000000		5.44220049		0.00000000		0.00000000		0.00000000
Ca		10.08886942		3.36565087		5.44220049		0.00000000		0.00000000		0.00000000
Ca		0.00000000		0.00000000		0.00000000		0.00000000		0.00000000		0.00000000
Si		8.45810457		4.84249792		8.18267439		-0.00019498		 0.00005809		-0.00022838
Si		11.71963427		1.88880383		2.70172659		 0.00019498		-0.00005809		 0.00022838
Si		11.71963427		1.88880383		8.18267439		 0.00019498		-0.00005809		-0.00022838
Si		8.45810457		4.84249792		2.70172659		-0.00019498		 0.00005809		 0.00022838
Si		1.63076485		1.47684704		8.14392506		 0.00019498		 0.00005809		 0.00022838
Si		18.54697398		5.25445269		2.74047390		-0.00019498		-0.00005809		-0.00022838
Si		18.54697398		5.25445269		8.14392506		-0.00019498		-0.00005809		 0.00022838
Si		1.63076485		1.47684704		2.74047390		 0.00019498		 0.00005809		-0.00022838
Si		13.39458837		4.95087053		5.44220049		-0.00064111		 0.00026466		0.00000000
Si		6.78315046		1.78042919		5.44220049		 0.00064111		-0.00026466		0.00000000
Si		16.87201988		1.58522168		0.00000000		 0.00064111		 0.00026466		-0.00000000
Si		3.30571895		5.14607805		0.00000000		-0.00064111		-0.00026466		-0.00000000
Si		6.82370772		1.90361227		0.00000000		-0.00011669		-0.00004735		-0.00000000
Si		13.35403112		4.82768947		0.00000000		 0.00011669		 0.00004735		-0.00000000
Si		3.26516170		5.26926113		5.44220049		 0.00011669		-0.00004735		0.00000000
Si		16.91257714		1.46203860		5.44220049		-0.00011669		 0.00004735		0.00000000
Mg		10.08886942		0.00000000		5.44220049		0.00000000		0.00000000		0.00000000
Mg		0.00000000		3.36565087		0.00000000		0.00000000		0.00000000		0.00000000
Mg		10.08886942		0.00000000		0.00000000		0.00000000		0.00000000		0.00000000
Mg		0.00000000		3.36565087		5.44220049		0.00000000		0.00000000		0.00000000
O		5.82531320		1.72994449		1.32789699		 0.00002200		 0.00003316		-0.00018858
O		14.35242563		5.00135524		9.55650399		-0.00002200		-0.00003316		 0.00018858
O		14.35242563		5.00135524		1.32789699		-0.00002200		-0.00003316		-0.00018858
O		5.82531320		1.72994449		9.55650399		 0.00002200		 0.00003316		 0.00018858
O		4.26355622		5.09559335		4.11430350		-0.00002200		 0.00003316		 0.00018858
O		15.91418262		1.63570638		6.77009749		 0.00002200		-0.00003316		-0.00018858
O		15.91418262		1.63570638		4.11430350		 0.00002200		-0.00003316		 0.00018858
O		4.26355622		5.09559335		6.77009749		-0.00002200		 0.00003316		-0.00018858
O		14.05984842		5.70410351		4.13933600		 0.00037894		-0.00036423		 0.00001858
O		6.11789042		1.02719622		6.74506296		-0.00037894		 0.00036423		-0.00001858
O		6.11789042		1.02719622		4.13933600		-0.00037894		 0.00036423		 0.00001858
O		14.05984842		5.70410351		6.74506296		 0.00037894		-0.00036423		-0.00001858
O		16.20675983		2.33845465		1.30286247		-0.00037894		-0.00036423		-0.00001858
O		3.97097900		4.39284508		9.58153649		 0.00037894		 0.00036423		 0.00001858
O		3.97097900		4.39284508		1.30286247		 0.00037894		 0.00036423		-0.00001858
O		16.20675983		2.33845465		9.58153649		-0.00037894		-0.00036423		 0.00001858
O		9.59855036		5.25647248		9.36711574		-0.00007733		-0.00008309		-0.00015721
O		10.57918847		1.47482725		1.51728525		 0.00007733		 0.00008309		 0.00015721
O		10.57918847		1.47482725		9.36711574		 0.00007733		 0.00008309		-0.00015721
O		9.59855036		5.25647248		1.51728525		-0.00007733		-0.00008309		 0.00015721
O		0.49031905		1.89082160		6.95948574		 0.00007733		-0.00008309		 0.00015721
O		19.68741978		4.84047812		3.92491524		-0.00007733		 0.00008309		-0.00015721
O		19.68741978		4.84047812		6.95948574		-0.00007733		 0.00008309		 0.00015721
O		0.49031905		1.89082160		3.92491524		 0.00007733		-0.00008309		-0.00015721
O		6.83884102		5.45302585		8.55731447		 0.00020496		-0.00028570		-0.00041968
O		13.33889781		1.27827388		2.32708450		-0.00020496		 0.00028570		 0.00041968
O		13.33889781		1.27827388		8.55731447		-0.00020496		 0.00028570		-0.00041968
O		6.83884102		5.45302585		2.32708450		 0.00020496		-0.00028570		 0.00041968
O		3.25002839		2.08737498		7.76928499		-0.00020496		-0.00028570		 0.00041968
O		16.92771044		4.64392475		3.11511398		 0.00020496		 0.00028570		-0.00041968
O		16.92771044		4.64392475		7.76928499		 0.00020496		 0.00028570		 0.00041968
O		3.25002839		2.08737498		3.11511398		-0.00020496		-0.00028570		-0.00041968
O		7.58682980		3.33805176		0.00000000		-0.00050861		 0.00026738		0.00000000
O		12.59090903		3.39324797		0.00000000		 0.00050861		-0.00026738		0.00000000
O		2.50203962		6.70370264		5.44220049		 0.00050861		 0.00026738		0.00000000
O		17.67569922		0.02759709		5.44220049		-0.00050861		-0.00026738		0.00000000
O		8.30313953		3.29497027		7.82697113		 0.00022664		 0.00024073		 0.00009277
O		11.87459931		3.43632946		3.05742784		-0.00022664		-0.00024073		-0.00009277
O		11.87459931		3.43632946		7.82697113		-0.00022664		-0.00024073		 0.00009277
O		8.30313953		3.29497027		3.05742784		 0.00022664		 0.00024073		-0.00009277
O		1.78572989		6.66062115		8.49962833		-0.00022664		 0.00024073		-0.00009277
O		18.39200895		0.07067858		2.38477265		 0.00022664		-0.00024073		 0.00009277
O		18.39200895		0.07067858		8.49962833		 0.00022664		-0.00024073		-0.00009277
O		1.78572989		6.66062115		2.38477265		-0.00022664		 0.00024073		 0.00009277
O		8.02670451		0.70342019		0.00000000		 0.00018715		 0.00025422		0.00000000
O		12.15103433		6.02787954		0.00000000		-0.00018715		-0.00025422		0.00000000
O		2.06216491		4.06907106		5.44220049		-0.00018715		 0.00025422		-0.00000000
O		18.11557191		2.66222867		5.44220049		 0.00018715		-0.00025422		0.00000000
O		11.63044867		5.19521690		5.44220049		 0.00005872		-0.00016418		0.00000000
O		8.54729017		1.53608283		5.44220049		-0.00005872		 0.00016418		0.00000000
O		18.63615959		1.82956602		0.00000000		-0.00005872		-0.00016418		-0.00000000
O		1.54157925		4.90173370		0.00000000		 0.00005872		 0.00016418		-0.00000000
O		14.01545740		3.45046396		5.44220049		-0.00016742		 0.00058368		-0.00000000
O		6.16228144		3.28083577		5.44220049		 0.00016742		-0.00058368		0.00000000
O		16.25115086		0.08481309		0.00000000		 0.00016742		 0.00058368		0.00000000
O		3.92658798		6.64648462		0.00000000		-0.00016742		-0.00058368		0.00000000
O		8.96496936		5.66102202		6.85281814		-0.00011551		-0.00040111		-0.00048352
O		11.21276947		1.07027771		4.03158284		 0.00011551		 0.00040111		 0.00048352
O		11.21276947		1.07027771		6.85281814		 0.00011551		 0.00040111		-0.00048352
O		8.96496936		5.66102202		4.03158284		-0.00011551		-0.00040111		 0.00048352
O		1.12390005		2.29537316		9.47378132		 0.00011551		-0.00040111		 0.00048352
O		19.05383878		4.43592657		1.41061765		-0.00011551		 0.00040111		-0.00048352
O		19.05383878		4.43592657		9.47378132		-0.00011551		 0.00040111		 0.00048352
O		1.12390005		2.29537316		1.41061765		 0.00011551		-0.00040111		-0.00048352
