# total energy = -49433.1120623 eV	

CRYSTAL	
PRIMVEC	
		18.23299940		0.00000000		0.00000000	
		0.00000000		8.59862782		0.00000000	
		0.00000000		0.00000000		5.18019569	
PRIMCOORD
   80 1	
Mg		6.86107767		5.62435885		4.48760609		 0.00053431		-0.00067288		-0.00057057	
Mg		11.37192172		2.97426350		0.69259325		-0.00053431		 0.00067288		 0.00057057	
Mg		2.25542203		2.97426350		1.89750642		-0.00053431		 0.00067288		-0.00057057	
Mg		15.97757737		5.62435885		3.28269291		 0.00053431		-0.00067288		 0.00057057	
Mg		11.37192172		1.32504859		3.28269291		-0.00053431		-0.00067288		 0.00057057	
Mg		6.86107767		7.27357558		1.89750642		 0.00053431		 0.00067288		-0.00057057	
Mg		15.97757737		7.27357558		0.69259325		 0.00053431		 0.00067288		 0.00057057	
Mg		2.25542203		1.32504859		4.48760609		-0.00053431		-0.00067288		-0.00057057	
Mg		6.87201747		4.18924858		1.85917337		-0.00016225		 0.00008693		-0.00034770	
Mg		11.36098192		4.40937376		3.32102597		 0.00016225		-0.00008693		 0.00034770	
Mg		2.24448223		4.40937376		4.44927304		 0.00016225		-0.00008693		-0.00034770	
Mg		15.98851717		4.18924858		0.73092630		-0.00016225		 0.00008693		 0.00034770	
Mg		11.36098192		8.48856067		0.73092630		 0.00016225		 0.00008693		 0.00034770	
Mg		6.87201747		0.11006168		4.44927304		-0.00016225		-0.00008693		-0.00034770	
Mg		15.98851717		0.11006168		3.32102597		-0.00016225		-0.00008693		 0.00034770	
Mg		2.24448223		8.48856067		1.85917337		 0.00016225		 0.00008693		-0.00034770	
Si		4.95025934		2.93900817		0.26211760		-0.00005631		 0.00090563		-0.00016927	
Si		13.28274006		5.65961418		4.91808174		 0.00005631		-0.00090563		 0.00016927	
Si		4.16624036		5.65961418		2.85221727		 0.00005631		-0.00090563		-0.00016927	
Si		14.06675903		2.93900817		2.32798207		-0.00005631		 0.00090563		 0.00016927	
Si		13.28274006		7.23832025		2.32798207		 0.00005631		 0.00090563		 0.00016927	
Si		4.95025934		1.36030209		2.85221727		-0.00005631		-0.00090563		-0.00016927	
Si		14.06675903		1.36030209		4.91808174		-0.00005631		-0.00090563		 0.00016927	
Si		4.16624036		7.23832025		0.26211760		 0.00005631		 0.00090563		-0.00016927	
Si		8.63514851		2.90117470		4.13431803		 0.00036525		 0.00059376		-0.00062647	
Si		9.59785088		5.69744765		1.04588131		-0.00036525		-0.00059376		 0.00062647	
Si		0.48135118		5.69744765		1.54421836		-0.00036525		-0.00059376		-0.00062647	
Si		17.75164821		2.90117470		3.63598098		 0.00036525		 0.00059376		 0.00062647	
Si		9.59785088		7.20048496		3.63598098		-0.00036525		 0.00059376		 0.00062647	
Si		8.63514851		1.39813557		1.54421836		 0.00036525		-0.00059376		-0.00062647	
Si		17.75164821		1.39813557		1.04588131		 0.00036525		-0.00059376		 0.00062647	
Si		0.48135118		7.20048496		4.13431803		-0.00036525		 0.00059376		-0.00062647	
O		3.34575539		2.92955071		0.17612713		-0.00022666		 0.00043718		-0.00008228	
O		14.88724401		5.66907163		5.00407221		 0.00022666		-0.00043718		 0.00008228	
O		5.77074431		5.66907163		2.76622680		 0.00022666		-0.00043718		-0.00008228	
O		12.46225509		2.92955071		2.41397254		-0.00022666		 0.00043718		 0.00008228	
O		14.88724401		7.22886280		2.41397254		 0.00022666		 0.00043718		 0.00008228	
O		3.34575539		1.36976137		2.76622680		-0.00022666		-0.00043718		-0.00008228	
O		12.46225509		1.36976137		5.00407221		-0.00022666		-0.00043718		 0.00008228	
O		5.77074431		7.22886280		0.17612713		 0.00022666		 0.00043718		-0.00008228	
O		5.67775601		4.32424753		0.22274891		-0.00049257		 0.00000883		-0.00050922	
O		12.55524338		4.27437481		4.95745225		 0.00049257		-0.00000883		 0.00050922	
O		3.43874369		4.27437481		2.81284858		 0.00049257		-0.00000883		-0.00050922	
O		14.79425571		4.32424753		2.36735076		-0.00049257		 0.00000883		 0.00050922	
O		12.55524338		0.02493545		2.36735076		 0.00049257		 0.00000883		 0.00050922	
O		5.67775601		8.57368690		2.81284858		-0.00049257		-0.00000883		-0.00050922	
O		14.79425571		8.57368690		4.95745225		-0.00049257		-0.00000883		 0.00050922	
O		3.43874369		0.02493545		0.22274891		 0.00049257		 0.00000883		-0.00050922	
O		5.51548232		1.91233350		4.30992734		 0.00053389		 0.00023333		-0.00005954	
O		12.71751708		6.68628885		0.87027382		-0.00053389		-0.00023333		 0.00005954	
O		3.60101738		6.68628885		1.71982767		-0.00053389		-0.00023333		-0.00005954	
O		14.63198202		1.91233350		3.46037349		 0.00053389		 0.00023333		 0.00005954	
O		12.71751708		6.21164558		3.46037349		-0.00053389		 0.00023333		 0.00005954	
O		5.51548232		2.38697859		1.71982767		 0.00053389		-0.00023333		-0.00005954	
O		14.63198202		2.38697859		0.87027382		 0.00053389		-0.00023333		 0.00005954	
O		3.60101738		6.21164558		4.30992734		-0.00053389		 0.00023333		-0.00005954	
O		10.25059226		2.93556943		4.13380021		 0.00034340		 0.00056011		-0.00010637	
O		7.98240714		5.66305292		1.04640095		-0.00034340		-0.00056011		 0.00010637	
O		17.09890683		5.66305292		1.54370054		-0.00034340		-0.00056011		-0.00010637	
O		1.13409256		2.93556943		3.63650062		 0.00034340		 0.00056011		 0.00010637	
O		7.98240714		7.23488151		3.63650062		-0.00034340		 0.00056011		 0.00010637	
O		10.25059226		1.36374266		1.54370054		 0.00034340		-0.00056011		-0.00010637	
O		1.13409256		1.36374266		1.04640095		 0.00034340		-0.00056011		 0.00010637	
O		17.09890683		7.23488151		4.13380021		-0.00034340		 0.00056011		-0.00010637	
O		7.88394894		4.15829442		3.57433703		-0.00016460		-0.00003378		-0.00000043	
O		10.34905046		4.44032975		1.60586231		 0.00016460		 0.00003378		 0.00000043	
O		1.23255076		4.44032975		0.98423736		 0.00016460		 0.00003378		-0.00000043	
O		17.00044864		4.15829442		4.19596197		-0.00016460		-0.00003378		 0.00000043	
O		10.34905046		8.45760651		4.19596197		 0.00016460		-0.00003378		 0.00000043	
O		7.88394894		0.14101766		0.98423736		-0.00016460		 0.00003378		-0.00000043	
O		17.00044864		0.14101766		1.60586231		-0.00016460		 0.00003378		 0.00000043	
O		1.23255076		8.45760651		3.57433703		 0.00016460		-0.00003378		-0.00000043	
O		8.17385363		1.67759092		3.12366105		-0.00010124		 0.00032803		-0.00018175	
O		10.05914577		6.92103142		2.05654011		 0.00010124		-0.00032803		 0.00018175	
O		0.94264607		6.92103142		0.53356138		 0.00010124		-0.00032803		-0.00018175	
O		17.29035333		1.67759092		4.64663978		-0.00010124		 0.00032803		 0.00018175	
O		10.05914577		5.97690301		4.64663978		 0.00010124		 0.00032803		 0.00018175	
O		8.17385363		2.62171934		0.53356138		-0.00010124		-0.00032803		-0.00018175	
O		17.29035333		2.62171934		2.05654011		-0.00010124		-0.00032803		 0.00018175	
O		0.94264607		5.97690301		3.12366105		 0.00010124		 0.00032803		-0.00018175	
