# total energy = -49426.7627517 eV	

CRYSTAL	
PRIMVEC	
		18.23299940		0.00000000		0.00000000	
		0.00000000		7.93718930		0.00000000	
		0.00000000		0.00000000		5.18019569	
PRIMCOORD
   80 1	
Mg		6.86107767		5.19171530		4.48760609		 0.00033099		-0.00049697		-0.00017096	
Mg		11.37192172		2.74547400		0.69259325		-0.00033099		 0.00049697		 0.00017096	
Mg		2.25542203		2.74547400		1.89750642		-0.00033099		 0.00049697		-0.00017096	
Mg		15.97757737		5.19171530		3.28269291		 0.00033099		-0.00049697		 0.00017096	
Mg		11.37192172		1.22312065		3.28269291		-0.00033099		-0.00049697		 0.00017096	
Mg		6.86107767		6.71406865		1.89750642		 0.00033099		 0.00049697		-0.00017096	
Mg		15.97757737		6.71406865		0.69259325		 0.00033099		 0.00049697		 0.00017096	
Mg		2.25542203		1.22312065		4.48760609		-0.00033099		-0.00049697		-0.00017096	
Mg		6.87201747		3.86699855		1.85917337		-0.00024169		 0.00019674		-0.00052996	
Mg		11.36098192		4.07019074		3.32102597		 0.00024169		-0.00019674		 0.00052996	
Mg		2.24448223		4.07019074		4.44927304		 0.00024169		-0.00019674		-0.00052996	
Mg		15.98851717		3.86699855		0.73092630		-0.00024169		 0.00019674		 0.00052996	
Mg		11.36098192		7.83559320		0.73092630		 0.00024169		 0.00019674		 0.00052996	
Mg		6.87201747		0.10159610		4.44927304		-0.00024169		-0.00019674		-0.00052996	
Mg		15.98851717		0.10159610		3.32102597		-0.00024169		-0.00019674		 0.00052996	
Mg		2.24448223		7.83559320		1.85917337		 0.00024169		 0.00019674		-0.00052996	
Si		4.95025934		2.71293174		0.26211760		 0.00001633		 0.00026631		-0.00018981	
Si		13.28274006		5.22425938		4.91808174		-0.00001633		-0.00026631		 0.00018981	
Si		4.16624036		5.22425938		2.85221727		-0.00001633		-0.00026631		-0.00018981	
Si		14.06675903		2.71293174		2.32798207		 0.00001633		 0.00026631		 0.00018981	
Si		13.28274006		6.68152639		2.32798207		-0.00001633		 0.00026631		 0.00018981	
Si		4.95025934		1.25566291		2.85221727		 0.00001633		-0.00026631		-0.00018981	
Si		14.06675903		1.25566291		4.91808174		 0.00001633		-0.00026631		 0.00018981	
Si		4.16624036		6.68152639		0.26211760		-0.00001633		 0.00026631		-0.00018981	
Si		8.63514851		2.67800825		4.13431803		-0.00012018		-0.00002344		 0.00031487	
Si		9.59785088		5.25918287		1.04588131		 0.00012018		 0.00002344		-0.00031487	
Si		0.48135118		5.25918287		1.54421836		 0.00012018		 0.00002344		 0.00031487	
Si		17.75164821		2.67800825		3.63598098		-0.00012018		-0.00002344		-0.00031487	
Si		9.59785088		6.64660290		3.63598098		 0.00012018		-0.00002344		-0.00031487	
Si		8.63514851		1.29058640		1.54421836		-0.00012018		 0.00002344		 0.00031487	
Si		17.75164821		1.29058640		1.04588131		-0.00012018		 0.00002344		-0.00031487	
Si		0.48135118		6.64660290		4.13431803		 0.00012018		-0.00002344		 0.00031487	
O		3.34575539		2.70420178		0.17612713		 0.00016581		-0.00008937		 0.00015476	
O		14.88724401		5.23298934		5.00407221		-0.00016581		 0.00008937		-0.00015476	
O		5.77074431		5.23298934		2.76622680		-0.00016581		 0.00008937		 0.00015476	
O		12.46225509		2.70420178		2.41397254		 0.00016581		-0.00008937		-0.00015476	
O		14.88724401		6.67279643		2.41397254		-0.00016581		-0.00008937		-0.00015476	
O		3.34575539		1.26439469		2.76622680		 0.00016581		 0.00008937		 0.00015476	
O		12.46225509		1.26439469		5.00407221		 0.00016581		 0.00008937		-0.00015476	
O		5.77074431		6.67279643		0.17612713		-0.00016581		-0.00008937		 0.00015476	
O		5.67775601		3.99161199		0.22274891		 0.00038054		 0.00054905		-0.00060430	
O		12.55524338		3.94557731		4.95745225		-0.00038054		-0.00054905		 0.00060430	
O		3.43874369		3.94557731		2.81284858		-0.00038054		-0.00054905		-0.00060430	
O		14.79425571		3.99161199		2.36735076		 0.00038054		 0.00054905		 0.00060430	
O		12.55524338		0.02301734		2.36735076		-0.00038054		 0.00054905		 0.00060430	
O		5.67775601		7.91417196		2.81284858		 0.00038054		-0.00054905		-0.00060430	
O		14.79425571		7.91417196		4.95745225		 0.00038054		-0.00054905		 0.00060430	
O		3.43874369		0.02301734		0.22274891		-0.00038054		 0.00054905		-0.00060430	
O		5.51548232		1.76523148		4.30992734		-0.00036526		-0.00021176		-0.00008863	
O		12.71751708		6.17195964		0.87027382		 0.00036526		 0.00021176		 0.00008863	
O		3.60101738		6.17195964		1.71982767		 0.00036526		 0.00021176		-0.00008863	
O		14.63198202		1.76523148		3.46037349		-0.00036526		-0.00021176		 0.00008863	
O		12.71751708		5.73382613		3.46037349		 0.00036526		-0.00021176		 0.00008863	
O		5.51548232		2.20336317		1.71982767		-0.00036526		 0.00021176		-0.00008863	
O		14.63198202		2.20336317		0.87027382		-0.00036526		 0.00021176		 0.00008863	
O		3.60101738		5.73382613		4.30992734		 0.00036526		-0.00021176		-0.00008863	
O		10.25059226		2.70975737		4.13380021		-0.00023571		-0.00037421		 0.00031479	
O		7.98240714		5.22743192		1.04640095		 0.00023571		 0.00037421		-0.00031479	
O		17.09890683		5.22743192		1.54370054		 0.00023571		 0.00037421		 0.00031479	
O		1.13409256		2.70975737		3.63650062		-0.00023571		-0.00037421		-0.00031479	
O		7.98240714		6.67835202		3.63650062		 0.00023571		-0.00037421		-0.00031479	
O		10.25059226		1.25883727		1.54370054		-0.00023571		 0.00037421		 0.00031479	
O		1.13409256		1.25883727		1.04640095		-0.00023571		 0.00037421		-0.00031479	
O		17.09890683		6.67835202		4.13380021		 0.00023571		-0.00037421		 0.00031479	
O		7.88394894		3.83842562		3.57433703		 0.00004635		 0.00049364		 0.00056990	
O		10.34905046		4.09876550		1.60586231		-0.00004635		-0.00049364		-0.00056990	
O		1.23255076		4.09876550		0.98423736		-0.00004635		-0.00049364		 0.00056990	
O		17.00044864		3.83842562		4.19596197		 0.00004635		 0.00049364		-0.00056990	
O		10.34905046		7.80702027		4.19596197		-0.00004635		 0.00049364		-0.00056990	
O		7.88394894		0.13017085		0.98423736		 0.00004635		-0.00049364		 0.00056990	
O		17.00044864		0.13017085		1.60586231		 0.00004635		-0.00049364		-0.00056990	
O		1.23255076		7.80702027		3.57433703		-0.00004635		 0.00049364		 0.00056990	
O		8.17385363		1.54854505		3.12366105		-0.00014867		-0.00022115		 0.00043100	
O		10.05914577		6.38864425		2.05654011		 0.00014867		 0.00022115		-0.00043100	
O		0.94264607		6.38864425		0.53356138		 0.00014867		 0.00022115		 0.00043100	
O		17.29035333		1.54854505		4.64663978		-0.00014867		-0.00022115		-0.00043100	
O		10.05914577		5.51714152		4.64663978		 0.00014867		-0.00022115		-0.00043100	
O		8.17385363		2.42004960		0.53356138		-0.00014867		 0.00022115		 0.00043100	
O		17.29035333		2.42004960		2.05654011		-0.00014867		 0.00022115		-0.00043100	
O		0.94264607		5.51714152		3.12366105		 0.00014867		-0.00022115		 0.00043100	
