# total energy = -49432.3875912 eV	

CRYSTAL	
PRIMVEC	
		18.23299940		0.00000000		0.00000000	
		0.00000000		9.48053976		0.00000000	
		0.00000000		0.00000000		5.18019569	
PRIMCOORD
   80 1	
Mg		6.86107767		6.20121631		4.48760609		-0.00004337		-0.00029992		 0.00022785	
Mg		11.37192172		3.27931616		0.69259325		 0.00004337		 0.00029992		-0.00022785	
Mg		2.25542203		3.27931616		1.89750642		 0.00004337		 0.00029992		 0.00022785	
Mg		15.97757737		6.20121631		3.28269291		-0.00004337		-0.00029992		-0.00022785	
Mg		11.37192172		1.46095007		3.28269291		 0.00004337		-0.00029992		-0.00022785	
Mg		6.86107767		8.01958240		1.89750642		-0.00004337		 0.00029992		 0.00022785	
Mg		15.97757737		8.01958240		0.69259325		-0.00004337		 0.00029992		-0.00022785	
Mg		2.25542203		1.46095007		4.48760609		 0.00004337		-0.00029992		 0.00022785	
Mg		6.87201747		4.61891651		1.85917337		-0.00001361		-0.00024844		-0.00020066	
Mg		11.36098192		4.86161596		3.32102597		 0.00001361		 0.00024844		 0.00020066	
Mg		2.24448223		4.86161596		4.44927304		 0.00001361		 0.00024844		-0.00020066	
Mg		15.98851717		4.61891651		0.73092630		-0.00001361		-0.00024844		 0.00020066	
Mg		11.36098192		9.35918092		0.73092630		 0.00001361		-0.00024844		 0.00020066	
Mg		6.87201747		0.12135155		4.44927304		-0.00001361		 0.00024844		-0.00020066	
Mg		15.98851717		0.12135155		3.32102597		-0.00001361		 0.00024844		 0.00020066	
Mg		2.24448223		9.35918092		1.85917337		 0.00001361		-0.00024844		-0.00020066	
Si		4.95025934		3.24044523		0.26211760		-0.00004855		 0.00034955		 0.00041032	
Si		13.28274006		6.24008724		4.91808174		 0.00004855		-0.00034955		-0.00041032	
Si		4.16624036		6.24008724		2.85221727		 0.00004855		-0.00034955		 0.00041032	
Si		14.06675903		3.24044523		2.32798207		-0.00004855		 0.00034955		-0.00041032	
Si		13.28274006		7.98071147		2.32798207		 0.00004855		 0.00034955		-0.00041032	
Si		4.95025934		1.49981918		2.85221727		-0.00004855		-0.00034955		 0.00041032	
Si		14.06675903		1.49981918		4.91808174		-0.00004855		-0.00034955		-0.00041032	
Si		4.16624036		7.98071147		0.26211760		 0.00004855		 0.00034955		 0.00041032	
Si		8.63514851		3.19873178		4.13431803		 0.00018414		 0.00010840		 0.00008709	
Si		9.59785088		6.28180070		1.04588131		-0.00018414		-0.00010840		-0.00008709	
Si		0.48135118		6.28180070		1.54421836		-0.00018414		-0.00010840		 0.00008709	
Si		17.75164821		3.19873178		3.63598098		 0.00018414		 0.00010840		-0.00008709	
Si		9.59785088		7.93899801		3.63598098		-0.00018414		 0.00010840		-0.00008709	
Si		8.63514851		1.54153446		1.54421836		 0.00018414		-0.00010840		 0.00008709	
Si		17.75164821		1.54153446		1.04588131		 0.00018414		-0.00010840		-0.00008709	
Si		0.48135118		7.93899801		4.13431803		-0.00018414		 0.00010840		 0.00008709	
O		3.34575539		3.23001778		0.17612713		 0.00030974		 0.00025788		-0.00003990	
O		14.88724401		6.25051469		5.00407221		-0.00030974		-0.00025788		 0.00003990	
O		5.77074431		6.25051469		2.76622680		-0.00030974		-0.00025788		-0.00003990	
O		12.46225509		3.23001778		2.41397254		 0.00030974		 0.00025788		 0.00003990	
O		14.88724401		7.97028401		2.41397254		-0.00030974		 0.00025788		 0.00003990	
O		3.34575539		1.51024846		2.76622680		 0.00030974		-0.00025788		-0.00003990	
O		12.46225509		1.51024846		5.00407221		 0.00030974		-0.00025788		 0.00003990	
O		5.77074431		7.97028401		0.17612713		-0.00030974		 0.00025788		-0.00003990	
O		5.67775601		4.76775978		0.22274891		 0.00007060		 0.00037473		-0.00051572	
O		12.55524338		4.71277270		4.95745225		-0.00007060		-0.00037473		 0.00051572	
O		3.43874369		4.71277270		2.81284858		-0.00007060		-0.00037473		-0.00051572	
O		14.79425571		4.76775978		2.36735076		 0.00007060		 0.00037473		 0.00051572	
O		12.55524338		0.02749354		2.36735076		-0.00007060		 0.00037473		 0.00051572	
O		5.67775601		9.45303893		2.81284858		 0.00007060		-0.00037473		-0.00051572	
O		14.79425571		9.45303893		4.95745225		 0.00007060		-0.00037473		 0.00051572	
O		3.43874369		0.02749354		0.22274891		-0.00007060		 0.00037473		-0.00051572	
O		5.51548232		2.10846952		4.30992734		-0.00027892		 0.00037170		 0.00028164	
O		12.71751708		7.37206113		0.87027382		 0.00027892		-0.00037170		-0.00028164	
O		3.60101738		7.37206113		1.71982767		 0.00027892		-0.00037170		 0.00028164	
O		14.63198202		2.10846952		3.46037349		-0.00027892		 0.00037170		-0.00028164	
O		12.71751708		6.84873758		3.46037349		 0.00027892		 0.00037170		-0.00028164	
O		5.51548232		2.63179672		1.71982767		-0.00027892		-0.00037170		 0.00028164	
O		14.63198202		2.63179672		0.87027382		-0.00027892		-0.00037170		-0.00028164	
O		3.60101738		6.84873758		4.30992734		 0.00027892		 0.00037170		 0.00028164	
O		10.25059226		3.23665459		4.13380021		-0.00002961		-0.00005010		 0.00028878	
O		7.98240714		6.24387970		1.04640095		 0.00002961		 0.00005010		-0.00028878	
O		17.09890683		6.24387970		1.54370054		 0.00002961		 0.00005010		 0.00028878	
O		1.13409256		3.23665459		3.63650062		-0.00002961		-0.00005010		-0.00028878	
O		7.98240714		7.97692083		3.63650062		 0.00002961		-0.00005010		-0.00028878	
O		10.25059226		1.50361347		1.54370054		-0.00002961		 0.00005010		 0.00028878	
O		1.13409256		1.50361347		1.04640095		-0.00002961		 0.00005010		-0.00028878	
O		17.09890683		7.97692083		4.13380021		 0.00002961		-0.00005010		 0.00028878	
O		7.88394894		4.58478616		3.57433703		 0.00016573		 0.00012895		-0.00040631	
O		10.34905046		4.89574631		1.60586231		-0.00016573		-0.00012895		 0.00040631	
O		1.23255076		4.89574631		0.98423736		-0.00016573		-0.00012895		-0.00040631	
O		17.00044864		4.58478616		4.19596197		 0.00016573		 0.00012895		 0.00040631	
O		10.34905046		9.32505239		4.19596197		-0.00016573		 0.00012895		 0.00040631	
O		7.88394894		0.15548190		0.98423736		 0.00016573		-0.00012895		-0.00040631	
O		17.00044864		0.15548190		1.60586231		 0.00016573		-0.00012895		 0.00040631	
O		1.23255076		9.32505239		3.57433703		-0.00016573		 0.00012895		-0.00040631	
O		8.17385363		1.84965209		3.12366105		-0.00005288		 0.00087532		-0.00020631	
O		10.05914577		7.63088038		2.05654011		 0.00005288		-0.00087532		 0.00020631	
O		0.94264607		7.63088038		0.53356138		 0.00005288		-0.00087532		-0.00020631	
O		17.29035333		1.84965209		4.64663978		-0.00005288		 0.00087532		 0.00020631	
O		10.05914577		6.58991833		4.64663978		 0.00005288		 0.00087532		 0.00020631	
O		8.17385363		2.89061414		0.53356138		-0.00005288		-0.00087532		-0.00020631	
O		17.29035333		2.89061414		2.05654011		-0.00005288		-0.00087532		 0.00020631	
O		0.94264607		6.58991833		3.12366105		 0.00005288		 0.00087532		-0.00020631	
