# total energy = -49429.731796 eV	

CRYSTAL	
PRIMVEC	
		18.23299940		0.00000000		0.00000000	
		0.00000000		8.15766273		0.00000000	
		0.00000000		0.00000000		5.18019569	
PRIMCOORD
   80 1	
Mg		6.86107767		5.33593103		4.48760609		-0.00026869		 0.00000557		-0.00004163	
Mg		11.37192172		2.82173716		0.69259325		 0.00026869		-0.00000557		 0.00004163	
Mg		2.25542203		2.82173716		1.89750642		 0.00026869		-0.00000557		-0.00004163	
Mg		15.97757737		5.33593103		3.28269291		-0.00026869		 0.00000557		 0.00004163	
Mg		11.37192172		1.25709785		3.28269291		 0.00026869		 0.00000557		 0.00004163	
Mg		6.86107767		6.90057035		1.89750642		-0.00026869		-0.00000557		-0.00004163	
Mg		15.97757737		6.90057035		0.69259325		-0.00026869		-0.00000557		 0.00004163	
Mg		2.25542203		1.25709785		4.48760609		 0.00026869		 0.00000557		-0.00004163	
Mg		6.87201747		3.97441645		1.85917337		 0.00065173		 0.00013089		 0.00018185	
Mg		11.36098192		4.18325175		3.32102597		-0.00065173		-0.00013089		-0.00018185	
Mg		2.24448223		4.18325175		4.44927304		-0.00065173		-0.00013089		 0.00018185	
Mg		15.98851717		3.97441645		0.73092630		 0.00065173		 0.00013089		-0.00018185	
Mg		11.36098192		8.05324963		0.73092630		-0.00065173		 0.00013089		-0.00018185	
Mg		6.87201747		0.10441856		4.44927304		 0.00065173		-0.00013089		 0.00018185	
Mg		15.98851717		0.10441856		3.32102597		 0.00065173		-0.00013089		-0.00018185	
Mg		2.24448223		8.05324963		1.85917337		-0.00065173		 0.00013089		 0.00018185	
Si		4.95025934		2.78829055		0.26211760		-0.00009727		-0.00024434		 0.00007037	
Si		13.28274006		5.36937765		4.91808174		 0.00009727		 0.00024434		-0.00007037	
Si		4.16624036		5.36937765		2.85221727		 0.00009727		 0.00024434		 0.00007037	
Si		14.06675903		2.78829055		2.32798207		-0.00009727		-0.00024434		-0.00007037	
Si		13.28274006		6.86712556		2.32798207		 0.00009727		-0.00024434		-0.00007037	
Si		4.95025934		1.29054264		2.85221727		-0.00009727		 0.00024434		 0.00007037	
Si		14.06675903		1.29054264		4.91808174		-0.00009727		 0.00024434		-0.00007037	
Si		4.16624036		6.86712556		0.26211760		 0.00009727		-0.00024434		 0.00007037	
Si		8.63514851		2.75239707		4.13431803		 0.00008180		-0.00043208		 0.00006640	
Si		9.59785088		5.40527113		1.04588131		-0.00008180		 0.00043208		-0.00006640	
Si		0.48135118		5.40527113		1.54421836		-0.00008180		 0.00043208		 0.00006640	
Si		17.75164821		2.75239707		3.63598098		 0.00008180		-0.00043208		-0.00006640	
Si		9.59785088		6.83123025		3.63598098		-0.00008180		-0.00043208		-0.00006640	
Si		8.63514851		1.32643612		1.54421836		 0.00008180		 0.00043208		 0.00006640	
Si		17.75164821		1.32643612		1.04588131		 0.00008180		 0.00043208		-0.00006640	
Si		0.48135118		6.83123025		4.13431803		-0.00008180		-0.00043208		 0.00006640	
O		3.34575539		2.77931627		0.17612713		-0.00023654		 0.00001585		-0.00066392	
O		14.88724401		5.37835011		5.00407221		 0.00023654		-0.00001585		 0.00066392	
O		5.77074431		5.37835011		2.76622680		 0.00023654		-0.00001585		-0.00066392	
O		12.46225509		2.77931627		2.41397254		-0.00023654		 0.00001585		 0.00066392	
O		14.88724401		6.85815128		2.41397254		 0.00023654		 0.00001585		 0.00066392	
O		3.34575539		1.29951510		2.76622680		-0.00023654		-0.00001585		-0.00066392	
O		12.46225509		1.29951510		5.00407221		-0.00023654		-0.00001585		 0.00066392	
O		5.77074431		6.85815128		0.17612713		 0.00023654		 0.00001585		-0.00066392	
O		5.67775601		4.10249050		0.22274891		-0.00032741		-0.00041101		-0.00027783	
O		12.55524338		4.05517769		4.95745225		 0.00032741		 0.00041101		 0.00027783	
O		3.43874369		4.05517769		2.81284858		 0.00032741		 0.00041101		-0.00027783	
O		14.79425571		4.10249050		2.36735076		-0.00032741		-0.00041101		 0.00027783	
O		12.55524338		0.02365732		2.36735076		 0.00032741		-0.00041101		 0.00027783	
O		5.67775601		8.13401088		2.81284858		-0.00032741		 0.00041101		-0.00027783	
O		14.79425571		8.13401088		4.95745225		-0.00032741		 0.00041101		 0.00027783	
O		3.43874369		0.02365732		0.22274891		 0.00032741		-0.00041101		-0.00027783	
O		5.51548232		1.81426549		4.30992734		 0.00033540		-0.00023573		 0.00017920	
O		12.71751708		6.34340088		0.87027382		-0.00033540		 0.00023573		-0.00017920	
O		3.60101738		6.34340088		1.71982767		-0.00033540		 0.00023573		 0.00017920	
O		14.63198202		1.81426549		3.46037349		 0.00033540		-0.00023573		-0.00017920	
O		12.71751708		5.89309867		3.46037349		-0.00033540		-0.00023573		-0.00017920	
O		5.51548232		2.26456952		1.71982767		 0.00033540		 0.00023573		 0.00017920	
O		14.63198202		2.26456952		0.87027382		 0.00033540		 0.00023573		-0.00017920	
O		3.60101738		5.89309867		4.30992734		-0.00033540		-0.00023573		 0.00017920	
O		10.25059226		2.78502867		4.13380021		 0.00014251		-0.00004700		-0.00029700	
O		7.98240714		5.37263953		1.04640095		-0.00014251		 0.00004700		 0.00029700	
O		17.09890683		5.37263953		1.54370054		-0.00014251		 0.00004700		-0.00029700	
O		1.13409256		2.78502867		3.63650062		 0.00014251		-0.00004700		 0.00029700	
O		7.98240714		6.86386185		3.63650062		-0.00014251		-0.00004700		 0.00029700	
O		10.25059226		1.29380634		1.54370054		 0.00014251		 0.00004700		-0.00029700	
O		1.13409256		1.29380634		1.04640095		 0.00014251		 0.00004700		 0.00029700	
O		17.09890683		6.86386185		4.13380021		-0.00014251		-0.00004700		-0.00029700	
O		7.88394894		3.94504855		3.57433703		 0.00054595		-0.00087770		-0.00075800	
O		10.34905046		4.21261964		1.60586231		-0.00054595		 0.00087770		 0.00075800	
O		1.23255076		4.21261964		0.98423736		-0.00054595		 0.00087770		-0.00075800	
O		17.00044864		3.94504855		4.19596197		 0.00054595		-0.00087770		 0.00075800	
O		10.34905046		8.02388174		4.19596197		-0.00054595		-0.00087770		 0.00075800	
O		7.88394894		0.13378646		0.98423736		 0.00054595		 0.00087770		-0.00075800	
O		17.00044864		0.13378646		1.60586231		 0.00054595		 0.00087770		 0.00075800	
O		1.23255076		8.02388174		3.57433703		-0.00054595		-0.00087770		-0.00075800	
O		8.17385363		1.59156034		3.12366105		-0.00050973		-0.00000350		-0.00018973	
O		10.05914577		6.56610603		2.05654011		 0.00050973		 0.00000350		 0.00018973	
O		0.94264607		6.56610603		0.53356138		 0.00050973		 0.00000350		-0.00018973	
O		17.29035333		1.59156034		4.64663978		-0.00050973		-0.00000350		 0.00018973	
O		10.05914577		5.67039535		4.64663978		 0.00050973		-0.00000350		 0.00018973	
O		8.17385363		2.48727285		0.53356138		-0.00050973		 0.00000350		-0.00018973	
O		17.29035333		2.48727285		2.05654011		-0.00050973		 0.00000350		 0.00018973	
O		0.94264607		5.67039535		3.12366105		 0.00050973		-0.00000350		-0.00018973	
