# total energy = -2069.17090482 eV	

CRYSTAL	
PRIMVEC	
		2.93802144		0.00000000		0.35256186	
		-1.46900924		2.54440208		-0.17628241	
		0.32156234		0.00000000		2.67968025	
PRIMCOORD
   2 1	
Mg		0.00000000		0.00000000		0.00000000		0.00000000		-0.00039114		0.00000000	
O		0.16078087		1.69626687		1.33983983		0.00000000		 0.00039114		0.00000000	
