# total energy = -21542.1261282 eV

CRYSTAL
PRIMVEC
		5.18479989		0.00000000		0.00000000
		0.00000000		8.92299913		0.00000000
		-0.14435001		-0.11066955		9.41790383
PRIMECORD
   42 1
Mg		0.00000000		0.00000000		0.00000000		0.00000000		0.00000000		0.00000000
Mg		2.59239994		4.46150008		0.00000000		0.00000000		0.00000000		0.00000000
Mg		2.59239994		1.48648316		0.00000000		-0.00016229		 0.00009079		 0.00020753
Mg		2.59239994		7.43651804		0.00000000		 0.00016229		-0.00009079		-0.00020753
Mg		0.00000000		5.94798273		0.00000000		-0.00016250		 0.00009094		 0.00020832
Mg		0.00000000		2.97501692		0.00000000		 0.00016250		-0.00009094		-0.00020832
Si		4.28040591		1.45641910		2.74061004		-0.00027031		-0.00025645		-0.00044830
Si		0.76004293		7.35591099		6.67729379		 0.00027031		 0.00025645		 0.00044830
Si		1.68800597		5.91791867		2.74061004		-0.00028466		-0.00019915		-0.00042049
Si		3.35244287		2.89440987		6.67729379		 0.00028466		 0.00019915		 0.00042049
Si		1.68800597		2.94067073		2.74061004		-0.00029653		-0.00000140		-0.00057177
Si		3.35244287		5.87165884		6.67729379		 0.00029653		 0.00000140		 0.00057177
Si		4.28040591		7.40217081		2.74061004		-0.00028389		 0.00004709		-0.00059969
Si		0.76004293		1.41015876		6.67729379		 0.00028389		-0.00004709		 0.00059969
O		1.71272606		2.95861169		1.10754584		-0.00011751		 0.00034364		-0.00053221
O		3.32772382		5.85371788		8.31035903		 0.00011751		-0.00034364		 0.00053221
O		4.30512600		7.42011177		1.10754584		-0.00011732		 0.00033337		-0.00051989
O		0.73532387		1.39221780		8.31035903		 0.00011732		-0.00033337		 0.00051989
O		4.30512600		1.47694780		1.10754584		 0.00002688		-0.00046609		-0.00039994
O		0.73532387		7.33538177		8.31035903		-0.00002688		 0.00046609		 0.00039994
O		1.71272606		5.93844788		1.10754584		 0.00002657		-0.00047701		-0.00041383
O		3.32772382		2.87388169		8.31035903		-0.00002657		 0.00047701		 0.00041383
O		1.71012899		-0.01246219		1.06045594		-0.00090171		-0.00056062		 0.00026525
O		3.33031985		-0.09820892		8.35744893		 0.00090171		 0.00056062		-0.00026525
O		4.30252893		4.44903893		1.06045594		-0.00090456		-0.00055994		-0.00008978
O		0.73792094		4.36329116		8.35744893		 0.00090456		 0.00055994		 0.00008978
O		1.77272715		4.42297598		3.27837282		 0.00039240		-0.00043132		-0.00002967
O		3.26772168		4.38935411		6.13953205		-0.00039240		 0.00043132		 0.00002967
O		4.36512710		-0.03852514		3.27837282		 0.00038933		-0.00042409		-0.00004006
O		0.67532174		-0.07214597		6.13953205		-0.00038933		 0.00042409		 0.00004006
O		2.93016995		2.11174100		3.28590685		-0.00059344		 0.00002094		 0.00011118
O		2.11027888		6.70058910		6.13199802		 0.00059344		-0.00002094		-0.00011118
O		0.33777001		6.57324108		3.28590685		-0.00053477		-0.00001409		 0.00011029
O		4.70267986		2.23908901		6.13199802		 0.00053477		 0.00001409		-0.00011029
O		0.33771816		2.27253305		3.28590685		-0.00083995		-0.00023850		-0.00015398
O		4.70273067		6.53979705		6.13199802		 0.00083995		 0.00023850		 0.00015398
O		2.93011914		6.73403261		3.28590685		-0.00089803		-0.00027330		-0.00015387
O		2.11033073		2.07829593		6.13199802		 0.00089803		 0.00027330		 0.00015387
H		1.69733912		-0.00881416		1.91183481		-0.00091337		 0.00000212		-0.00062381
H		3.34311075		8.82114373		7.50607005		 0.00091337		-0.00000212		 0.00062381
H		4.28973907		4.45268592		1.91183481		-0.00090690		 0.00000234		-0.00030332
H		0.75071081		4.35964313		7.50607005		 0.00090690		-0.00000234		 0.00030332
