# total energy = -21540.7683231 eV

CRYSTAL
PRIMVEC
		5.18479989		0.00000000		0.00000000
		0.00000000		8.92299913		0.00000000
		-0.14435001		-0.11066955		8.49908470
PRIMECORD
   42 1
Mg		0.00000000		0.00000000		0.00000000		0.00000000		0.00000000		0.00000000
Mg		2.59239994		4.46150008		0.00000000		0.00000000		0.00000000		0.00000000
Mg		2.59239994		1.48648316		0.00000000		-0.00003867		-0.00083756		-0.00003703
Mg		2.59239994		7.43651804		0.00000000		 0.00003867		 0.00083756		 0.00003703
Mg		0.00000000		5.94798273		0.00000000		-0.00003945		-0.00088657		-0.00003623
Mg		0.00000000		2.97501692		0.00000000		 0.00003945		 0.00088657		 0.00003623
Si		4.28040591		1.45641910		2.47323406		 0.00044955		 0.00025670		-0.00017670
Si		0.76004293		7.35591099		6.02585065		-0.00044955		-0.00025670		 0.00017670
Si		1.68800597		5.91791867		2.47323406		 0.00045337		-0.00014406		-0.00026361
Si		3.35244287		2.89440987		6.02585065		-0.00045337		 0.00014406		 0.00026361
Si		1.68800597		2.94067073		2.47323406		 0.00020301		 0.00034774		-0.00007390
Si		3.35244287		5.87165884		6.02585065		-0.00020301		-0.00034774		 0.00007390
Si		4.28040591		7.40217081		2.47323406		 0.00022313		-0.00006666		 0.00000033
Si		0.76004293		1.41015876		6.02585065		-0.00022313		 0.00006666		-0.00000033
O		1.71272606		2.95861169		0.99949202		 0.00044017		-0.00010763		-0.00002038
O		3.32772382		5.85371788		7.49959165		-0.00044017		 0.00010763		 0.00002038
O		4.30512600		7.42011177		0.99949202		 0.00044252		-0.00004935		-0.00001996
O		0.73532387		1.39221780		7.49959165		-0.00044252		 0.00004935		 0.00001996
O		4.30512600		1.47694780		0.99949202		 0.00005938		-0.00043472		 0.00028527
O		0.73532387		7.33538177		7.49959165		-0.00005938		 0.00043472		-0.00028527
O		1.71272606		5.93844788		0.99949202		 0.00005856		-0.00037636		 0.00028814
O		3.32772382		2.87388169		7.49959165		-0.00005856		 0.00037636		-0.00028814
O		1.71012899		-0.01246219		0.95699688		 0.00007692		-0.00010039		-0.00034978
O		3.33031985		-0.09820892		7.54208782		-0.00007692		 0.00010039		 0.00034978
O		4.30252893		4.44903893		0.95699688		 0.00006254		-0.00009871		 0.00013377
O		0.73792094		4.36329116		7.54208782		-0.00006254		 0.00009871		-0.00013377
O		1.77272715		4.42297598		2.95853081		 0.00018565		-0.00019609		 0.00000147
O		3.26772168		4.38935411		5.54055286		-0.00018565		 0.00019609		-0.00000147
O		4.36512710		-0.03852514		2.95853081		 0.00015713		-0.00017369		 0.00008283
O		0.67532174		-0.07214597		5.54055286		-0.00015713		 0.00017369		-0.00008283
O		2.93016995		2.11174100		2.96533016		-0.00020050		-0.00028136		-0.00021227
O		2.11027888		6.70058910		5.53375403		 0.00020050		 0.00028136		 0.00021227
O		0.33777001		6.57324108		2.96533016		-0.00054352		-0.00001853		-0.00017104
O		4.70267986		2.23908901		5.53375403		 0.00054352		 0.00001853		 0.00017104
O		0.33771816		2.27253305		2.96533016		 0.00005358		-0.00037458		 0.00028081
O		4.70273067		6.53979705		5.53375403		-0.00005358		 0.00037458		-0.00028081
O		2.93011914		6.73403261		2.96533016		 0.00037672		-0.00012407		 0.00023949
O		2.11033073		2.07829593		5.53375403		-0.00037672		 0.00012407		-0.00023949
H		1.69733912		-0.00881416		1.72531371		 0.00004159		-0.00014638		 0.00028626
H		3.34311075		8.82114373		6.77376995		-0.00004159		 0.00014638		-0.00028626
H		4.28973907		4.45268592		1.72531371		 0.00004983		-0.00014750		-0.00015157
H		0.75071081		4.35964313		6.77376995		-0.00004983		 0.00014750		 0.00015157
