# total energy = -24708.2799125 eV	

CRYSTAL	
PRIMVEC	
		9.68100360		-1.54896489		0.00000000	
		-1.39823614		8.73900283		0.00000000	
		1.61441729		-0.25830951		4.94514622	
PRIMCOORD
   40 1	
Si		1.78422782		3.20578898		0.99397543		 0.00007569		 0.00016359		-0.00005481	
Si		8.11294418		3.72594631		3.95117177		-0.00007569		-0.00016359		 0.00005481	
Si		2.01780053		7.42605775		1.47859866		 0.00055979		 0.00025666		-0.00009114	
Si		7.87937148		-0.49432442		3.46654756		-0.00055979		-0.00025666		 0.00009114	
Si		7.55742138		2.28207781		1.47859866		 0.00012028		 0.00046898		-0.00007973	
Si		2.33975161		4.64965552		3.46654756		-0.00012028		-0.00046898		 0.00007973	
Si		5.92560764		6.80080893		0.99397543		-0.00013687		 0.00025496		 0.00015363	
Si		3.97156437		0.13092538		3.95117177		 0.00013687		-0.00025496		-0.00015363	
O		3.44658046		3.02496546		0.49451462		 0.00019717		 0.00000824		 0.00039114	
O		6.45059154		3.90676885		4.45063160		-0.00019717		-0.00000824		-0.00039114	
O		0.32748356		7.78166152		1.97805947		 0.00043186		 0.00024790		 0.00018982	
O		9.56968845		-0.84992722		2.96708773		-0.00043186		-0.00024790		-0.00018982	
O		8.25215308		0.80847632		0.78627780		-0.00050449		 0.00041928		 0.00020171	
O		1.64501893		6.12325799		4.15886941		 0.00050449		-0.00041928		-0.00020171	
O		5.67831307		5.47793128		1.68629531		-0.00063973		 0.00032194		 0.00015579	
O		4.21885992		1.45380303		3.25885189		 0.00063973		-0.00032194		-0.00015579	
O		2.30070469		3.80437546		4.69788891		 0.00059915		-0.00020696		-0.00070340	
O		7.59646830		3.12735885		0.24725731		-0.00059915		 0.00020696		 0.00070340	
O		2.89201944		7.96740574		2.71983140		 0.00008531		 0.00008455		-0.00013603	
O		7.00515256		-1.03567241		2.22531580		-0.00008531		-0.00008455		 0.00013603	
O		8.43164029		2.82342580		2.71983140		 0.00013557		 0.00055928		-0.00022180	
O		1.46553269		4.10830753		2.22531580		-0.00013557		-0.00055928		 0.00022180	
O		6.44208352		7.39939639		4.69788891		 0.00048780		-0.00012291		-0.00082619	
O		3.45508751		-0.46766110		0.24725731		-0.00048780		 0.00012291		 0.00082619	
O		1.53693326		1.88291133		1.68629531		-0.00057343		 0.00007988		-0.00031052	
O		8.36023973		5.04882298		3.25885189		 0.00057343		-0.00007988		 0.00031052	
O		2.71253321		5.95245626		0.78627780		-0.00053488		-0.00035852		-0.00015877	
O		7.18463880		0.97927805		4.15886842		 0.00053488		 0.00035852		 0.00015877	
O		5.86710441		2.63768159		1.97805947		-0.00001063		-0.00006533		 0.00027877	
O		4.03006760		4.29405272		2.96708773		 0.00001063		 0.00006533		-0.00027877	
O		7.58796027		6.61998541		0.49451462		-0.00008670		 0.00019819		 0.00020563	
O		2.30921173		0.31174890		4.45063160		 0.00008670		-0.00019819		-0.00020563	
Mg		0.27636284		0.73067169		1.23628656		-0.00037160		 0.00027440		-0.00073258	
Mg		-0.06018954		7.75002162		3.70885967		 0.00037160		-0.00027440		 0.00073258	
Mg		4.41774265		4.32569262		1.23628656		-0.00016797		 0.00063044		-0.00039779	
Mg		5.47942935		2.60604169		3.70885967		 0.00016797		-0.00063044		 0.00039779	
Mg		-0.64190311		5.97824897		0.98902924		-0.00008781		-0.00025335		-0.00024028	
Mg		0.85807641		2.50244533		3.95611698		 0.00008781		 0.00025335		 0.00024028	
Mg		5.05915751		0.80843808		1.48354387		-0.00050988		 0.00014095		-0.00005557	
Mg		4.83801351		6.12329623		3.46160334		 0.00050988		-0.00014095		 0.00005557	
