# total energy = -24711.3240415 eV	

CRYSTAL	
PRIMVEC	
		9.68100150		-1.16171784		0.00000000	
		-1.04868083		8.73900039		0.00000000	
		1.61441192		-0.19373177		4.94514750	
PRIMCOORD
   40 1	
Si		1.92754775		3.30008893		0.99397493		 0.00043217		 0.00024060		-0.00004287	
Si		8.31918484		4.08346185		3.95117159		-0.00043217		-0.00024060		 0.00004287	
Si		2.33590066		7.55766561		1.47859882		 0.00035431		 0.00020051		-0.00004512	
Si		7.91083193		-0.17411581		3.46654770		-0.00035431		-0.00020051		 0.00004512	
Si		7.70074085		2.60730552		1.47859882		 0.00055207		 0.00031864		-0.00009368	
Si		2.54599174		4.77624526		3.46654770		-0.00055207		-0.00031864		 0.00009368	
Si		6.24370808		7.08872923		0.99397493		 0.00065022		-0.00010207		-0.00012559	
Si		4.00302451		0.29482058		3.95117159		-0.00065022		 0.00010207		 0.00012559	
O		3.59339623		3.18631868		0.49451475		-0.00067687		-0.00035248		 0.00078649	
O		6.65333733		4.19723210		4.45063177		 0.00067687		 0.00035248		-0.00078649	
O		0.64907895		7.84621567		1.97805900		 0.00057258		-0.00047544		 0.00014062	
O		9.59765267		-0.46266587		2.96708752		-0.00057258		 0.00047544		-0.00014062	
O		8.33954282		1.15254364		0.78627758		-0.00045731		-0.00030556		-0.00041567	
O		1.90718880		6.23100617		4.15886894		 0.00045731		 0.00030556		 0.00041567	
O		5.94048262		5.74701118		1.68629519		 0.00027061		-0.00023914		 0.00007957	
O		4.30624998		1.63653960		3.25885231		-0.00027061		 0.00023914		-0.00007957	
O		2.47198872		3.92380889		4.69788866		 0.00039708		 0.00012834		-0.00019795	
O		7.77474387		3.45974189		0.24725689		-0.00039708		-0.00012834		 0.00019795	
O		3.23808384		8.13845725		2.71983064		-0.00022236		 0.00084750		-0.00031114	
O		7.00864875		-0.75490647		2.22531589		 0.00022236		-0.00084750		 0.00031114	
O		8.60292403		3.18809716		2.71983064		-0.00043101		 0.00045626		-0.00012169	
O		1.64380856		4.19545362		2.22531589		 0.00043101		-0.00045626		 0.00012169	
O		6.78814906		7.71244919		4.69788866		 0.00048445		 0.00043622		-0.00035525	
O		3.45858353		-0.32889939		0.24725689		-0.00048445		-0.00043622		 0.00035525	
O		1.62432325		1.95837088		1.68629519		 0.00028836		-0.00003816		-0.00005955	
O		8.62241031		5.42517990		3.25885231		-0.00028836		 0.00003816		 0.00005955	
O		2.97470263		6.10290470		0.78627758		 0.00017147		 0.00004489		 0.00015993	
O		7.27202899		1.28064608		4.15886796		-0.00017147		-0.00004489		-0.00015993	
O		6.01392011		2.89585558		1.97805900		 0.00065855		 0.00002356		-0.00007438	
O		4.23281248		4.48769520		2.96708752		-0.00065855		-0.00002356		 0.00007438	
O		7.90955462		6.97495898		0.49451475		-0.00070297		 0.00002709		 0.00063072	
O		2.33717699		0.40859180		4.45063177		 0.00070297		-0.00002709		-0.00063072	
Mg		0.30817285		0.74681652		1.23628736		 0.00005863		 0.00061373		 0.00025410	
Mg		0.25756019		7.79845405		3.70886014		-0.00005863		-0.00061373		-0.00025410	
Mg		4.62433319		4.53545682		1.23628736		 0.00028600		 0.00016715		 0.00012310	
Mg		5.62239941		2.84809396		3.70886014		-0.00028600		-0.00016715		-0.00012310	
Mg		-0.40070661		5.99116353		0.98902852		-0.00014712		 0.00038253		 0.00064521	
Mg		0.96643965		2.55410607		3.95611702		 0.00014712		-0.00038253		-0.00064521	
Mg		5.12557477		1.02143123		1.48354425		-0.00015332		-0.00004896		 0.00060382	
Mg		5.12115782		6.36211955		3.46160325		 0.00015332		 0.00004896		-0.00060382	
