# total energy = -7658.38902349 eV	

CRYSTAL	
PRIMVEC	
		5.54069813		0.00000000		-0.44325474	
		-2.77035184		4.79838471		0.22163015	
		-0.38748174		0.00000000		4.84350225	
PRIMCOORD
   15 1	
Mg		0.00000000		0.00000000		0.00000000		0.00000000		0.00000000		0.00000000	
Mg		-0.00422383		3.19892462		0.05279425		-0.00013134		 0.00009673		 0.00022004	
Mg		2.38709282		1.59946175		4.56907785		 0.00013134		-0.00009673		-0.00022004	
O		0.82786223		1.60553987		0.99252098		 0.00004209		-0.00000740		-0.00033622	
O		1.55500788		3.19284706		3.62935057		-0.00004209		 0.00000740		 0.00033622	
O		0.83811192		4.78639079		0.99170112		-0.00004646		 0.00011200		-0.00039431	
O		1.54475763		0.01199614		3.63017099		 0.00004646		-0.00011200		 0.00039431	
O		-1.92171064		3.20484154		1.21248694		-0.00019221		-0.00011347		-0.00034297	
O		4.30458075		1.59354372		3.40938460		 0.00019221		 0.00011347		 0.00034297	
H		0.62243204		1.67607709		1.98108104		-0.00033882		-0.00047047		 0.00020907	
H		1.76043807		3.12230983		2.64079106		 0.00033882		 0.00047047		-0.00020907	
H		0.76233423		4.64099967		1.96988865		-0.00004063		 0.00084174		-0.00007214	
H		1.62053588		0.15738725		2.65198290		 0.00004063		-0.00084174		 0.00007214	
H		-1.87531578		3.27969653		2.18090114		 0.00001908		-0.00038349		-0.00023562	
H		4.25818588		1.51868873		2.44097097		-0.00001908		 0.00038349		 0.00023562	
