# total energy = -7658.28302554 eV	

CRYSTAL	
PRIMVEC	
		5.54070079		0.00000000		-0.66488276	
		-2.77034760		4.79838928		0.33244417	
		-0.58122064		0.00000000		4.84350164	
PRIMCOORD
   15 1	
Mg		0.00000000		0.00000000		0.00000000		0.00000000		0.00000000		0.00000000	
Mg		-0.00633493		3.19892507		0.05279385		 0.00018242		-0.00002753		 0.00010530	
Mg		2.19546468		1.59946198		4.45826418		-0.00018242		 0.00002753		-0.00010530	
O		0.78523912		1.60554020		0.95599699		-0.00015014		 0.00011336		 0.00059681	
O		1.40389119		3.19284685		3.55506104		 0.00015014		-0.00011336		-0.00059681	
O		0.79548873		4.78639076		0.95476706		-0.00030678		-0.00018194		 0.00017887	
O		1.39364102		0.01199574		3.55629097		 0.00030678		 0.00018194		-0.00017887	
O		-1.96433303		3.20484202		1.28594614		-0.00041272		 0.00005897		 0.00021165	
O		4.15346278		1.59354391		3.22511189		 0.00041272		-0.00005897		-0.00021165	
H		0.54067421		1.67607710		1.94964305		 0.00074431		 0.00023590		-0.00069968	
H		1.64845722		3.12230995		2.56141498		-0.00074431		-0.00023590		 0.00069968	
H		0.68057610		4.64099994		1.93285482		 0.00008337		-0.00052348		-0.00028655	
H		1.50855421		0.15738711		2.57820321		-0.00008337		 0.00052348		 0.00028655	
H		-1.95707398		3.27969707		2.24937294		-0.00050022		 0.00019112		-0.00015580	
H		4.14620373		1.51868887		2.26168509		 0.00050022		-0.00019112		 0.00015580	
