# total energy = -7658.23668274 eV	

CRYSTAL	
PRIMVEC	
		5.54070206		0.00000000		-0.88651480	
		-2.77034822		4.79838879		0.44325459	
		-0.77495907		0.00000000		4.84350262	
PRIMCOORD
   15 1	
Mg		0.00000000		0.00000000		0.00000000		0.00000000		0.00000000		0.00000000	
Mg		-0.00844706		3.19892511		0.05279384		-0.00073327		 0.00007987		-0.00014589	
Mg		2.00383677		1.59946199		4.34745025		 0.00073327		-0.00007987		 0.00014589	
O		0.74261627		1.60554002		0.91947314		-0.00007252		 0.00016568		-0.00037400	
O		1.25277400		3.19284709		3.48077095		 0.00007252		-0.00016568		 0.00037400	
O		0.75286676		4.78639098		0.91783300		-0.00030372		-0.00000315		-0.00033718	
O		1.24252407		0.01199613		3.48241110		 0.00030372		 0.00000315		 0.00033718	
O		-2.00695602		3.20484209		1.35940424		 0.00037087		-0.00015879		-0.00003619	
O		4.00234573		1.59354389		3.04083986		-0.00037087		 0.00015879		 0.00003619	
H		0.45891482		1.67607695		1.91820522		 0.00022154		 0.00014529		 0.00038379	
H		1.53647490		3.12231016		2.48203887		-0.00022154		-0.00014529		-0.00038379	
H		0.59881819		4.64099988		1.89582113		 0.00015999		-0.00008339		-0.00008909	
H		1.39657209		0.15738722		2.50442296		-0.00015999		 0.00008339		 0.00008909	
H		-2.03883197		3.27969682		2.31784473		-0.00047044		-0.00013520		-0.00008515	
H		4.03422281		1.51868916		2.08239880		 0.00047044		 0.00013520		 0.00008515	
