# total energy = -12277.6410038 eV

CRYSTAL
PRIMVEC
		3.14300099		-0.50288156		0.00000000
		-2.00700641		2.97335792		0.00000000
		0.00000000		0.00000000		22.77199693
PRIMECORD
   22 1
O		-0.29033802		1.81461175		15.30961413		-0.00018454		-0.00039888		-0.00037497
O		1.42633101		0.65586589		7.46238471		 0.00018454		 0.00039888		 0.00037497
O		1.42633101		0.65586589		17.52077503		-0.00084749		 0.00008584		-0.00006537
O		-0.29033802		1.81461175		5.25122286		 0.00084749		-0.00008584		 0.00006537
O		-0.29033802		1.81461175		10.28155736		 0.00032955		-0.00012299		 0.00004318
O		1.42633101		0.65586589		12.49044116		-0.00032955		 0.00012299		-0.00004318
O		-0.29033802		1.81461175		20.41965068		 0.00033027		 0.00026719		-0.00056654
O		1.42633101		0.65586589		2.35234689		-0.00033027		-0.00026719		 0.00056654
O		0.00000000		0.00000000		0.00000000		0.00000000		0.00000000		0.00000000
H		-0.29033802		1.81461175		14.32130932		-0.00024585		 0.00004948		 0.00040400
H		1.42633101		0.65586589		8.45068857		 0.00024585		-0.00004948		-0.00040400
H		-0.29033802		1.81461175		9.29097545		 0.00004080		-0.00012050		 0.00055879
H		1.42633101		0.65586589		13.48102307		-0.00004080		 0.00012050		-0.00055879
H		-0.29033802		1.81461175		19.42906876		-0.00006143		-0.00017187		 0.00037949
H		1.42633101		0.65586589		3.34292881		 0.00006143		 0.00017187		-0.00037949
H		1.42633101		0.65586589		18.51135695		-0.00008129		 0.00006213		-0.00047265
H		-0.29033802		1.81461175		4.26064062		 0.00008129		-0.00006213		 0.00047265
Mg		0.00000000		0.00000000		16.41633297		-0.00004650		 0.00049636		-0.00032070
Mg		0.00000000		0.00000000		6.35566459		 0.00004650		-0.00049636		 0.00032070
Mg		1.42633101		0.65586589		21.53547888		 0.00022333		-0.00003323		-0.00072581
Mg		-0.29033802		1.81461175		1.23651996		-0.00022333		 0.00003323		 0.00072581
Mg		0.00000000		0.00000000		11.38599942		0.00000000		0.00000000		0.00000000
