# total energy = -12280.655058 eV

CRYSTAL
PRIMVEC
		3.14300015		0.12571988		0.00000000
		-1.46262285		2.65905662		0.00000000
		0.00000000		0.00000000		22.77199785
PRIMECORD
   22 1
O		0.07258398		1.81461209		15.30961516		-0.00052437		 0.00004855		 0.00018828
O		1.60779207		0.97016598		7.46238520		 0.00052437		-0.00004855		-0.00018828
O		1.60779207		0.97016598		17.52077615		 0.00046712		-0.00000074		-0.00029823
O		0.07258398		1.81461209		5.25122295		-0.00046712		 0.00000074		 0.00029823
O		0.07258398		1.81461209		10.28155821		-0.00044535		 0.00003235		 0.00046055
O		1.60779207		0.97016598		12.49044216		 0.00044535		-0.00003235		-0.00046055
O		0.07258398		1.81461209		20.41965206		 0.00005902		 0.00052149		-0.00093688
O		1.60779207		0.97016598		2.35234704		-0.00005902		-0.00052149		 0.00093688
O		0.00000000		0.00000000		0.00000000		0.00000000		0.00000000		0.00000000
H		0.07258398		1.81461209		14.32130995		 0.00005006		 0.00005664		-0.00051176
H		1.60779207		0.97016598		8.45068916		-0.00005006		-0.00005664		 0.00051176
H		0.07258398		1.81461209		9.29097595		 0.00004226		 0.00005335		-0.00056901
H		1.60779207		0.97016598		13.48102410		-0.00004226		-0.00005335		 0.00056901
H		0.07258398		1.81461209		19.42907012		 0.00076303		 0.00021695		-0.00039389
H		1.60779207		0.97016598		3.34292898		-0.00076303		-0.00021695		 0.00039389
H		1.60779207		0.97016598		18.51135809		 0.00020207		-0.00012641		 0.00006799
H		0.07258398		1.81461209		4.26064102		-0.00020207		 0.00012641		-0.00006799
Mg		0.00000000		0.00000000		16.41633418		 0.00000507		 0.00001687		-0.00023730
Mg		0.00000000		0.00000000		6.35566493		-0.00000507		-0.00001687		 0.00023730
Mg		1.60779207		0.97016598		21.53548017		 0.00094370		 0.00020475		 0.00094385
Mg		0.07258398		1.81461209		1.23651988		-0.00094370		-0.00020475		-0.00094385
Mg		0.00000000		0.00000000		11.38600018		0.00000000		0.00000000		0.00000000
