# total energy = -12280.0467945 eV

CRYSTAL
PRIMVEC
		3.14299905		-0.25143929		0.00000000
		-1.78925330		2.84763789		0.00000000
		0.00000000		0.00000000		22.77199715
PRIMECORD
   22 1
O		-0.14516887		1.81461195		15.30961471		-0.00080650		 0.00010616		-0.00055037
O		1.49891494		0.78158601		7.46238496		 0.00080650		-0.00010616		 0.00055037
O		1.49891588		0.78158601		17.52077555		 0.00066580		 0.00000749		-0.00002747
O		-0.14516887		1.81461195		5.25122286		-0.00066580		-0.00000749		 0.00002747
O		-0.14516887		1.81461195		10.28155782		-0.00063720		 0.00001924		 0.00035691
O		1.49891494		0.78158601		12.49044185		 0.00063720		-0.00001924		-0.00035691
O		-0.14516887		1.81461195		20.41965163		-0.00001570		 0.00014078		-0.00020135
O		1.49891494		0.78158601		2.35234710		 0.00001570		-0.00014078		 0.00020135
O		0.00000000		0.00000000		0.00000000		0.00000000		0.00000000		0.00000000
H		-0.14516887		1.81461195		14.32130962		-0.00010031		-0.00013144		-0.00054091
H		1.49891494		0.78158601		8.45068879		 0.00010031		 0.00013144		 0.00054091
H		-0.14516887		1.81461195		9.29097592		-0.00001920		-0.00013074		-0.00092252
H		1.49891494		0.78158601		13.48102375		 0.00001920		 0.00013074		 0.00092252
H		-0.14516887		1.81461195		19.42906973		-0.00049857		 0.00015748		-0.00052300
H		1.49891494		0.78158601		3.34292900		 0.00049857		-0.00015748		 0.00052300
H		1.49891588		0.78158601		18.51135745		-0.00031197		 0.00017758		 0.00045156
H		-0.14516887		1.81461195		4.26064096		 0.00031197		-0.00017758		-0.00045156
Mg		0.00000000		0.00000000		16.41633354		-0.00014049		-0.00002675		-0.00020159
Mg		0.00000000		0.00000000		6.35566487		 0.00014049		 0.00002675		 0.00020159
Mg		1.49891588		0.78158601		21.53547959		-0.00019956		-0.00073384		 0.00088592
Mg		-0.14516887		1.81461195		1.23652008		 0.00019956		 0.00073384		-0.00088592
Mg		0.00000000		0.00000000		11.38599984		0.00000000		0.00000000		0.00000000
