# total energy = -12279.0410367 eV

CRYSTAL
PRIMVEC
		3.14300039		-0.37715929		0.00000000
		-1.89812941		2.91049718		0.00000000
		0.00000000		0.00000000		22.77199742
PRIMECORD
   22 1
O		-0.21775302		1.81461180		15.30961452		-0.00046817		 0.00054611		-0.00049872
O		1.46262305		0.71872610		7.46238480		 0.00046817		-0.00054611		 0.00049872
O		1.46262305		0.71872610		17.52077522		 0.00021228		-0.00042505		-0.00001712
O		-0.21775302		1.81461180		5.25122283		-0.00021228		 0.00042505		 0.00001712
O		-0.21775302		1.81461180		10.28155748		-0.00009640		 0.00040344		 0.00048094
O		1.46262305		0.71872610		12.49044152		 0.00009640		-0.00040344		-0.00048094
O		-0.21775302		1.81461180		20.41965136		-0.00036908		-0.00069335		 0.00070899
O		1.46262305		0.71872610		2.35234702		 0.00036908		 0.00069335		-0.00070899
O		0.00000000		0.00000000		0.00000000		0.00000000		0.00000000		0.00000000
H		-0.21775302		1.81461180		14.32130936		-0.00030046		-0.00013333		-0.00040633
H		1.46262305		0.71872610		8.45068870		 0.00030046		 0.00013333		 0.00040633
H		-0.21775302		1.81461180		9.29097566		-0.00017636		-0.00015834		-0.00076425
H		1.46262305		0.71872610		13.48102335		 0.00017636		 0.00015834		 0.00076425
H		-0.21775302		1.81461180		19.42906921		-0.00044864		-0.00018548		-0.00011510
H		1.46262305		0.71872610		3.34292884		 0.00044864		 0.00018548		 0.00011510
H		1.46262305		0.71872610		18.51135737		-0.00041382		 0.00039956		 0.00027145
H		-0.21775302		1.81461180		4.26064069		 0.00041382		-0.00039956		-0.00027145
Mg		0.00000000		0.00000000		16.41633336		-0.00020529		 0.00000422		-0.00020378
Mg		0.00000000		0.00000000		6.35566469		 0.00020529		-0.00000422		 0.00020378
Mg		1.46262305		0.71872610		21.53547906		-0.00092833		-0.00031720		 0.00091576
Mg		-0.21775302		1.81461180		1.23651994		 0.00092833		 0.00031720		-0.00091576
Mg		0.00000000		0.00000000		11.38599966		0.00000000		0.00000000		0.00000000
