# total energy = -24711.8243193 eV	

CRYSTAL	
PRIMVEC	
		9.27320145		-1.11278193		0.00000000	
		-1.04718902		8.72660319		0.00000000	
		0.00000000		0.00000000		5.32170249	
PRIMCOORD
   40 1	
Mg		-0.94749863		7.89582688		1.33042469		-0.00055134		-0.00005886		-0.00040424	
Mg		-0.09969319		0.83077164		3.99127500		 0.00055134		 0.00005886		 0.00040424	
Mg		4.01331115		4.63768040		3.99127500		 0.00055134		 0.00005886		-0.00040424	
Mg		4.21269661		2.97613619		1.33042469		-0.00055134		-0.00005886		 0.00040424	
Mg		-0.27719193		2.30993057		1.33042469		 0.00078652		 0.00033086		 0.00011892	
Mg		-0.76999989		6.41666889		3.99127500		-0.00078652		-0.00033086		-0.00011892	
Mg		4.39019628		1.49697726		3.99127500		-0.00078652		-0.00033086		 0.00011892	
Mg		3.83581242		6.11683933		1.33042469		 0.00078652		 0.00033086		-0.00011892	
Si		2.60999736		0.47464593		0.35442494		 0.00041559		 0.00051153		-0.00025472	
Si		5.61601134		7.13916973		4.96727474		-0.00041559		-0.00051153		 0.00025472	
Si		1.50300699		3.33226190		3.01527526		-0.00041559		-0.00051153		-0.00025472	
Si		6.72300077		4.28155376		2.30642537		 0.00041559		 0.00051153		 0.00025472	
Si		6.47135674		0.01128333		2.30642537		-0.00011425		-0.00013795		 0.00033811	
Si		1.75465103		7.60253326		3.01527526		 0.00011425		 0.00013795		-0.00033811	
Si		6.91484720		2.68284070		4.96727474		 0.00011425		 0.00013795		 0.00033811	
Si		1.31116243		4.93097495		0.35442494		-0.00011425		-0.00013795		-0.00033811	
O		0.98972914		0.68628044		0.42147859		 0.00026027		-0.00078765		 0.00082992	
O		7.23627862		6.92753615		4.90022110		-0.00026027		 0.00078765		-0.00082992	
O		3.12327520		3.12062833		3.08232890		-0.00026027		 0.00078765		 0.00082992	
O		5.10273256		4.49318826		2.23937079		 0.00026027		-0.00078765		-0.00082992	
O		8.08743701		-0.16544488		2.23937079		-0.00015232		 0.00007446		 0.00014806	
O		0.13857168		7.77926054		3.08232890		 0.00015232		-0.00007446		-0.00014806	
O		5.29876692		2.85956891		4.90022110		 0.00015232		-0.00007446		 0.00014806	
O		2.92723991		4.75424675		0.42147859		-0.00015232		 0.00007446		-0.00014806	
O		3.23078762		1.76769956		0.37251880		-0.00066713		-0.00006577		-0.00014308	
O		4.99521921		5.84611609		4.94918089		 0.00066713		 0.00006577		 0.00014308	
O		0.88221580		2.03920827		3.03336911		 0.00066713		 0.00006577		-0.00014308	
O		7.34379290		5.57460832		2.28833058		-0.00066713		-0.00006577		 0.00014308	
O		5.51755939		1.49328807		2.28833058		 0.00014566		 0.00050753		-0.00000304	
O		2.70844930		6.12052759		3.03336911		-0.00014566		-0.00050753		 0.00000304	
O		7.86864454		1.20083596		4.94918089		-0.00014566		-0.00050753		-0.00000304	
O		0.35736322		6.41297876		0.37251880		 0.00014566		 0.00050753		 0.00000304	
O		2.22719458		8.11262906		1.53903593		-0.00015563		-0.00030186		-0.00031822	
O		5.99881318		-0.49881434		3.78266376		 0.00015563		 0.00030186		 0.00031822	
O		0.83861701		4.42087822		4.19988624		 0.00015563		 0.00030186		-0.00031822	
O		7.38739075		3.19293837		1.12181438		-0.00015563		-0.00030186		 0.00031822	
O		5.00544621		7.77923906		1.12181438		 0.00070995		 0.00026261		 0.00065852	
O		3.22056155		-0.16542433		4.19988624		-0.00070995		-0.00026261		-0.00065852	
O		7.33356590		3.64148443		3.78266376		-0.00070995		-0.00026261		 0.00065852	
O		0.89244186		3.97233123		1.53903593		 0.00070995		 0.00026261		-0.00065852	
