# total energy = -24716.5857086 eV

CRYSTAL
PRIMVEC
		9.61326956		0.00000000		0.00000000
		0.00000000		8.60189592		0.00000000
		-1.62743040		0.00000000		4.91196737
PRIMECORD
   40 1
Mg		2.03778627		5.62048072		1.07424827		 0.00052652		 0.00045635		-0.00009286
Mg		5.94805577		2.98141808		3.83772199		-0.00052652		-0.00045635		 0.00009286
Mg		6.76177001		1.31953084		1.38173734		-0.00052652		 0.00045635		 0.00009286
Mg		1.22407203		7.28236700		3.53023291		 0.00052652		-0.00045635		-0.00009286
Mg		2.11556628		0.10408287		1.06000332		 0.00058287		 0.00020795		-0.00002357
Mg		5.87027576		8.49781593		3.85196693		-0.00058287		-0.00020795		 0.00002357
Mg		6.68399000		4.40503179		1.39598229		-0.00058287		 0.00020795		 0.00002357
Mg		1.30185204		4.19686605		3.51598797		 0.00058287		-0.00020795		-0.00002357
Si		-0.04067759		2.92120441		1.46327614		-0.00001390		 0.00001972		-0.00021293
Si		8.02651963		5.68069343		3.44869412		 0.00001390		-0.00001972		 0.00021293
Si		8.84023387		7.22215333		0.99270851		 0.00001390		 0.00001972		 0.00021293
Si		-0.85439087		1.37974451		3.91926078		-0.00001390		-0.00001972		-0.00021293
Si		4.94609063		7.20581077		1.11108824		 0.00026201		-0.00040167		-0.00002065
Si		3.03975044		1.39608803		3.80088202		-0.00026201		 0.00040167		 0.00002065
Si		3.85346468		2.90486089		1.34489737		-0.00026201		-0.00040167		 0.00002065
Si		4.13237736		5.69703695		3.56707192		 0.00026201		 0.00040167		-0.00002065
O		8.04909831		2.93238656		0.92295944		-0.00021592		 0.00007872		-0.00004068
O		-0.06325724		5.66951032		3.98901082		 0.00021592		-0.00007872		 0.00004068
O		0.75045700		7.23333645		1.53302617		 0.00021592		 0.00007872		 0.00004068
O		7.23538503		1.36856236		3.37894408		-0.00021592		-0.00007872		-0.00004068
O		0.68054066		4.30610932		1.57576004		 0.00044668		 0.00008461		-0.00019458
O		7.30530042		4.29578756		3.33621022		-0.00044668		-0.00008461		 0.00019458
O		8.11901466		0.00516136		0.88022461		-0.00044668		 0.00008461		 0.00019458
O		-0.13317262		8.59673744		4.03174469		 0.00044668		-0.00008461		-0.00019458
O		0.00731378		2.41713262		3.00710762		-0.00022343		 0.00027006		 0.00003093
O		7.97852730		6.18476426		1.90486167		 0.00022343		-0.00027006		-0.00003093
O		7.16481402		6.71808250		4.36084632		 0.00022343		 0.00027006		-0.00003093
O		0.82102802		1.88381630		0.55112298		-0.00022343		-0.00027006		 0.00003093
O		3.39361874		7.20753059		0.62922310		 0.00036133		-0.00044424		 0.00031112
O		4.59222234		1.39436822		4.28274716		-0.00036133		 0.00044424		-0.00031112
O		5.40593658		2.90658070		1.82676155		-0.00036133		-0.00044424		-0.00031112
O		2.57990450		5.69531714		3.08520775		 0.00036133		 0.00044424		 0.00031112
O		5.47592118		8.39889347		1.95791058		 0.00001212		-0.00043359		 0.00047815
O		2.50992086		0.20300534		2.95405872		-0.00001212		 0.00043359		-0.00047815
O		3.32363510		4.09794455		0.49807407		-0.00001212		-0.00043359		-0.00047815
O		4.66220790		4.50395426		4.41389619		 0.00001212		 0.00043359		 0.00047815
O		5.07876145		5.97831930		2.20203571		-0.00028649		-0.00019528		 0.00019042
O		2.90707963		2.62357854		2.70993358		 0.00028649		 0.00019528		-0.00019042
O		3.72079387		1.67737038		0.25394894		 0.00028649		-0.00019528		-0.00019042
O		4.26504817		6.92452747		4.65802036		-0.00028649		 0.00019528		 0.00019042
