# total energy = -24716.6066146 eV

CRYSTAL
PRIMVEC
		9.61326956		0.00000000		0.00000000
		0.00000000		9.26358688		0.00000000
		-1.62743040		0.00000000		4.91196737
PRIMECORD
   40 1
Mg		2.03778627		6.05282502		1.07424827		 0.00009573		 0.00009457		 0.00017457
Mg		5.94805577		3.21075801		3.83772199		-0.00009573		-0.00009457		-0.00017457
Mg		6.76177001		1.42103351		1.38173734		-0.00009573		 0.00009457		-0.00017457
Mg		1.22407203		7.84254856		3.53023291		 0.00009573		-0.00009457		 0.00017457
Mg		2.11556628		0.11208880		1.06000332		 0.00025213		 0.00069971		 0.00002378
Mg		5.87027576		9.15149327		3.85196693		-0.00025213		-0.00069971		-0.00002378
Mg		6.68399000		4.74388032		1.39598229		-0.00025213		 0.00069971		-0.00002378
Mg		1.30185204		4.51970175		3.51598797		 0.00025213		-0.00069971		 0.00002378
Si		-0.04067759		3.14591266		1.46327614		-0.00018599		 0.00023863		 0.00007714
Si		8.02651963		6.11767037		3.44869412		 0.00018599		-0.00023863		-0.00007714
Si		8.84023387		7.77770322		0.99270851		 0.00018599		 0.00023863		-0.00007714
Si		-0.85439087		1.48587885		3.91926078		-0.00018599		-0.00023863		 0.00007714
Si		4.94609063		7.76010324		1.11108824		-0.00008667		 0.00000818		 0.00002066
Si		3.03975044		1.50347883		3.80088202		 0.00008667		-0.00000818		-0.00002066
Si		3.85346468		3.12831173		1.34489737		 0.00008667		 0.00000818		-0.00002066
Si		4.13237736		6.13527034		3.56707192		-0.00008667		-0.00000818		 0.00002066
O		8.04909831		3.15795617		0.92295944		 0.00009232		-0.00053325		-0.00016105
O		-0.06325724		6.10562783		3.98901082		-0.00009232		 0.00053325		 0.00016105
O		0.75045700		7.78974672		1.53302617		-0.00009232		-0.00053325		 0.00016105
O		7.23538503		1.47383631		3.37894408		 0.00009232		 0.00053325		-0.00016105
O		0.68054066		4.63734991		1.57576004		 0.00049540		 0.00030478		-0.00004259
O		7.30530042		4.62623408		3.33621022		-0.00049540		-0.00030478		 0.00004259
O		8.11901466		0.00555839		0.88022461		-0.00049540		 0.00030478		 0.00004259
O		-0.13317262		9.25802464		4.03174469		 0.00049540		-0.00030478		-0.00004259
O		0.00731378		2.60306671		3.00710762		 0.00029033		 0.00016800		 0.00040060
O		7.97852730		6.66051536		1.90486167		-0.00029033		-0.00016800		-0.00040060
O		7.16481402		7.23485823		4.36084632		-0.00029033		 0.00016800		-0.00040060
O		0.82102802		2.02872481		0.55112298		 0.00029033		-0.00016800		 0.00040060
O		3.39361874		7.76195572		0.62922310		 0.00004347		-0.00073966		 0.00042285
O		4.59222234		1.50162731		4.28274716		-0.00004347		 0.00073966		-0.00042285
O		5.40593658		3.13016516		1.82676155		-0.00004347		-0.00073966		-0.00042285
O		2.57990450		6.13341883		3.08520775		 0.00004347		 0.00073966		 0.00042285
O		5.47592118		9.04496286		1.95791058		 0.00054468		 0.00007182		 0.00003292
O		2.50992086		0.21862017		2.95405872		-0.00054468		-0.00007182		-0.00003292
O		3.32363510		4.41317039		0.49807407		-0.00054468		 0.00007182		-0.00003292
O		4.66220790		4.85041169		4.41389619		 0.00054468		-0.00007182		 0.00003292
O		5.07876145		6.43818927		2.20203571		-0.00061092		 0.00057194		 0.00010217
O		2.90707963		2.82539280		2.70993358		 0.00061092		-0.00057194		-0.00010217
O		3.72079387		1.80639872		0.25394894		 0.00061092		 0.00057194		-0.00010217
O		4.26504817		7.45718431		4.65802036		-0.00061092		-0.00057194		 0.00010217
