# total energy = -24713.3626002 eV

CRYSTAL
PRIMVEC
		9.61326956		0.00000000		0.00000000
		0.00000000		7.94021458		0.00000000
		-1.62743040		0.00000000		4.91196737
PRIMECORD
   40 1
Mg		2.03778627		5.18813546		1.07424827		-0.00042952		 0.00046656		 0.00029302
Mg		5.94805577		2.75207816		3.83772199		 0.00042952		-0.00046656		-0.00029302
Mg		6.76177001		1.21802913		1.38173734		 0.00042952		 0.00046656		-0.00029302
Mg		1.22407203		6.72218448		3.53023291		-0.00042952		-0.00046656		 0.00029302
Mg		2.11556628		0.09607694		1.06000332		 0.00004386		 0.00043630		 0.00040322
Mg		5.87027576		7.84413764		3.85196693		-0.00004386		-0.00043630		-0.00040322
Mg		6.68399000		4.06618423		1.39598229		-0.00004386		 0.00043630		-0.00040322
Mg		1.30185204		3.87402939		3.51598797		 0.00004386		-0.00043630		 0.00040322
Si		-0.04067759		2.69649712		1.46327614		-0.00037529		 0.00012314		-0.00006762
Si		8.02651963		5.24371746		3.44869412		 0.00037529		-0.00012314		 0.00006762
Si		8.84023387		6.66660344		0.99270851		 0.00037529		 0.00012314		 0.00006762
Si		-0.85439087		1.27361017		3.91926078		-0.00037529		-0.00012314		-0.00006762
Si		4.94609063		6.65151638		1.11108824		-0.00032870		-0.00008116		 0.00009609
Si		3.03975044		1.28869724		3.80088202		 0.00032870		 0.00008116		-0.00009609
Si		3.85346468		2.68141005		1.34489737		 0.00032870		-0.00008116		-0.00009609
Si		4.13237736		5.25880356		3.56707192		-0.00032870		 0.00008116		 0.00009609
O		8.04909831		2.70681888		0.92295944		 0.00008082		-0.00077285		-0.00026858
O		-0.06325724		5.23339473		3.98901082		-0.00008082		 0.00077285		 0.00026858
O		0.75045700		6.67692617		1.53302617		-0.00008082		-0.00077285		 0.00026858
O		7.23538503		1.26328840		3.37894408		 0.00008082		 0.00077285		-0.00026858
O		0.68054066		3.97487066		1.57576004		-0.00089809		-0.00000471		 0.00070320
O		7.30530042		3.96534295		3.33621022		 0.00089809		 0.00000471		-0.00070320
O		8.11901466		0.00476434		0.88022461		 0.00089809		-0.00000471		-0.00070320
O		-0.13317262		7.93544928		4.03174469		-0.00089809		 0.00000471		 0.00070320
O		0.00731378		2.23119949		3.00710762		 0.00008064		-0.00048488		-0.00019985
O		7.97852730		5.70901413		1.90486167		-0.00008064		 0.00048488		 0.00019985
O		7.16481402		6.20130678		4.36084632		-0.00008064		-0.00048488		 0.00019985
O		0.82102802		1.73890684		0.55112298		 0.00008064		 0.00048488		-0.00019985
O		3.39361874		6.65310449		0.62922310		-0.00008687		-0.00022356		 0.00000430
O		4.59222234		1.28710913		4.28274716		 0.00008687		 0.00022356		-0.00000430
O		5.40593658		2.68299816		1.82676155		 0.00008687		-0.00022356		-0.00000430
O		2.57990450		5.25721545		3.08520775		-0.00008687		 0.00022356		 0.00000430
O		5.47592118		7.75282504		1.95791058		-0.00018033		-0.00049871		-0.00031076
O		2.50992086		0.18738858		2.95405872		 0.00018033		 0.00049871		 0.00031076
O		3.32363510		3.78271775		0.49807407		 0.00018033		-0.00049871		 0.00031076
O		4.66220790		4.15749587		4.41389619		-0.00018033		 0.00049871		-0.00031076
O		5.07876145		5.51844836		2.20203571		-0.00019016		-0.00018637		 0.00006416
O		2.90707963		2.42176525		2.70993358		 0.00019016		 0.00018637		-0.00006416
O		3.72079387		1.54834203		0.25394894		 0.00019016		-0.00018637		-0.00006416
O		4.26504817		6.39187158		4.65802036		-0.00019016		 0.00018637		 0.00006416
