# total energy = -24716.1541412 eV

CRYSTAL
PRIMVEC
		9.61326956		0.00000000		0.00000000
		0.00000000		9.48414412		0.00000000
		-1.62743040		0.00000000		4.91196737
PRIMECORD
   40 1
Mg		2.03778627		6.19693947		1.07424827		-0.00016737		 0.00016132		-0.00000433
Mg		5.94805577		3.28720465		3.83772199		 0.00016737		-0.00016132		 0.00000433
Mg		6.76177001		1.45486837		1.38173734		 0.00016737		 0.00016132		 0.00000433
Mg		1.22407203		8.02927671		3.53023291		-0.00016737		-0.00016132		-0.00000433
Mg		2.11556628		0.11475841		1.06000332		-0.00016500		-0.00007429		-0.00028921
Mg		5.87027576		9.36938668		3.85196693		 0.00016500		 0.00007429		 0.00028921
Mg		6.68399000		4.85682950		1.39598229		 0.00016500		-0.00007429		 0.00028921
Mg		1.30185204		4.62731366		3.51598797		-0.00016500		 0.00007429		-0.00028921
Si		-0.04067759		3.22081541		1.46327614		 0.00038562		-0.00030129		-0.00028073
Si		8.02651963		6.26332871		3.44869412		-0.00038562		 0.00030129		 0.00028073
Si		8.84023387		7.96288747		0.99270851		-0.00038562		-0.00030129		 0.00028073
Si		-0.85439087		1.52125665		3.91926078		 0.00038562		 0.00030129		-0.00028073
Si		4.94609063		7.94486740		1.11108824		-0.00004431		-0.00004848		 0.00001466
Si		3.03975044		1.53927672		3.80088202		 0.00004431		 0.00004848		-0.00001466
Si		3.85346468		3.20279630		1.34489737		 0.00004431		-0.00004848		-0.00001466
Si		4.13237736		6.28134878		3.56707192		-0.00004431		 0.00004848		 0.00001466
O		8.04909831		3.23314443		0.92295944		 0.00028599		-0.00036348		 0.00065997
O		-0.06325724		6.25099969		3.98901082		-0.00028599		 0.00036348		-0.00065997
O		0.75045700		7.97521649		1.53302617		-0.00028599		-0.00036348		-0.00065997
O		7.23538503		1.50892667		3.37894408		 0.00028599		 0.00036348		 0.00065997
O		0.68054066		4.74776312		1.57576004		 0.00027515		-0.00027420		 0.00023398
O		7.30530042		4.73638197		3.33621022		-0.00027515		 0.00027420		-0.00023398
O		8.11901466		0.00569009		0.88022461		-0.00027515		-0.00027420		-0.00023398
O		-0.13317262		9.47845403		4.03174469		 0.00027515		 0.00027420		 0.00023398
O		0.00731378		2.66504442		3.00710762		 0.00004142		 0.00022744		-0.00030257
O		7.97852730		6.81909970		1.90486167		-0.00004142		-0.00022744		 0.00030257
O		7.16481402		7.40711648		4.36084632		-0.00004142		 0.00022744		 0.00030257
O		0.82102802		2.07702764		0.55112298		 0.00004142		-0.00022744		-0.00030257
O		3.39361874		7.94676506		0.62922310		-0.00012759		 0.00037368		 0.00093459
O		4.59222234		1.53738002		4.28274716		 0.00012759		-0.00037368		-0.00093459
O		5.40593658		3.20469204		1.82676155		 0.00012759		 0.00037368		-0.00093459
O		2.57990450		6.27945208		3.08520775		-0.00012759		-0.00037368		 0.00093459
O		5.47592118		9.26031837		1.95791058		-0.00038698		 0.00022658		-0.00010130
O		2.50992086		0.22382576		2.95405872		 0.00038698		-0.00022658		 0.00010130
O		3.32363510		4.51824727		0.49807407		 0.00038698		 0.00022658		 0.00010130
O		4.66220790		4.96589782		4.41389619		-0.00038698		-0.00022658		-0.00010130
O		5.07876145		6.59147959		2.20203571		-0.00020699		 0.00002561		 0.00004441
O		2.90707963		2.89266357		2.70993358		 0.00020699		-0.00002561		-0.00004441
O		3.72079387		1.84940753		0.25394894		 0.00020699		 0.00002561		-0.00004441
O		4.26504817		7.63473659		4.65802036		-0.00020699		-0.00002561		 0.00004441
