# total energy = -10831.8617621 eV

CRYSTAL
PRIMVEC
		3.03199980		0.00000000		0.12127987
		-1.51599838		2.62578749		-0.06063994
		0.59840061		0.00000000		14.95999706
PRIMECORD
   13 1
Mg		1.61573293		0.87526300		2.55397268		-0.00013909		 0.00036490		 0.00025553
Mg		0.49866697		1.75052570		12.46666462		 0.00013909		-0.00036490		-0.00025553
Mg		0.00000000		0.00000000		0.00000000		0.00000000		0.00000000		0.00000000
Mg		0.19946697		1.75052570		4.98666639		-0.00004710		-0.00084487		-0.00071035
Mg		1.91493293		0.87526300		10.03397181		 0.00004710		 0.00084487		 0.00071035
O		2.06453278		0.87526300		13.77397259		-0.00029092		-0.00023049		 0.00084865
O		0.04986712		1.75052570		1.24666592		 0.00029092		 0.00023049		-0.00084865
O		1.75954886		0.87526300		6.14935947		 0.00021777		-0.00060639		 0.00077956
O		0.35485104		1.75052570		8.87127904		-0.00021777		 0.00060639		-0.00077956
O		0.44892001		0.00000000		11.22299065		 0.00001088		-0.00040752		-0.00055948
O		0.14947999		0.00000000		3.73700763		-0.00001088		 0.00040752		 0.00055948
H		1.79916267		0.87526300		7.13971121		 0.00027493		-0.00063110		-0.00079731
H		0.31523693		1.75052570		7.88092821		-0.00027493		 0.00063110		 0.00079731
