# total energy = -22469.1677921 eV

CRYSTAL
PRIMVEC
		9.73970004		0.00000000		0.00000000
		0.00000000		9.58620237		0.00000000
		-1.43536881		0.00000000		5.05028771
PRIMECORD
   40 1
Mg		-0.35884269		8.70504100		1.26257095		0.00000000		 0.00032404		-0.00000001
Mg		-1.07652807		0.88116430		3.78771188		-0.00000000		-0.00032404		 0.00000001
Mg		4.51100733		3.91193884		1.26257095		 0.00000001		 0.00032274		-0.00000001
Mg		3.79332195		5.67426743		3.78771188		-0.00000001		-0.00032274		 0.00000001
Ca		-0.35884269		2.89004853		1.26257095		-0.00000001		-0.00047948		-0.00000005
Ca		-1.07652807		6.69615579		3.78771188		 0.00000001		 0.00047948		 0.00000005
Ca		4.51100733		7.68315167		1.26257095		-0.00000001		-0.00047736		-0.00000003
Ca		3.79332195		1.90305363		3.78771188		 0.00000001		 0.00047736		 0.00000003
Si		2.45818828		0.89333795		1.15833279		-0.00002425		 0.00024287		-0.00004268
Si		5.84614100		8.69286734		3.89195005		 0.00002425		-0.00024287		 0.00004268
Si		6.56382638		0.89333795		1.36680912		 0.00002405		 0.00024311		 0.00004258
Si		1.74050290		8.69286734		3.68347372		-0.00002405		-0.00024311		-0.00004258
Si		7.32803928		5.68644108		1.15833279		-0.00000159		 0.00025615		-0.00003358
Si		0.97629098		3.89976421		3.89195005		 0.00000159		-0.00025615		 0.00003358
Si		1.69397636		5.68644108		1.36680912		 0.00000120		 0.00025649		 0.00003335
Si		6.61035293		3.89976421		3.68347372		-0.00000120		-0.00025649		-0.00003335
O		0.92170288		0.83304141		0.71643286		-0.00054495		-0.00016585		-0.00022137
O		7.38262640		8.75316388		4.33384998		 0.00054495		 0.00016585		 0.00022137
O		8.10031081		0.83304141		1.80870807		 0.00054512		-0.00016589		 0.00022137
O		0.20401847		8.75316388		3.24157476		-0.00054512		 0.00016589		-0.00022137
O		5.79155387		5.62614357		0.71643286		-0.00055959		-0.00016737		-0.00022591
O		2.51277638		3.96006075		4.33384998		 0.00055959		 0.00016737		 0.00022591
O		3.23046079		5.62614357		1.80870807		 0.00055986		-0.00016741		 0.00022602
O		5.07386849		3.96006075		3.24157476		-0.00055986		 0.00016741		-0.00022602
O		3.05934400		2.39837289		1.60477824		 0.00005195		 0.00000758		 0.00018789
O		5.24498528		7.18783240		3.44550460		-0.00005195		-0.00000758		-0.00018789
O		5.96267066		2.39837289		0.92036367		-0.00005191		 0.00000742		-0.00018782
O		2.34165764		7.18783240		4.12991917		 0.00005191		-0.00000742		 0.00018782
O		7.92919402		7.19147602		1.60477824		 0.00004379		-0.00000548		 0.00018387
O		0.37513526		2.39473024		3.44550460		-0.00004379		 0.00000548		-0.00018387
O		1.09282064		7.19147602		0.92036367		-0.00004364		-0.00000578		-0.00018375
O		7.21150767		2.39473024		4.12991917		 0.00004364		 0.00000578		 0.00018375
O		1.98719392		0.16718293		5.02720267		 0.00066519		-0.00029697		 0.00044070
O		6.31713633		9.41902237		0.02308017		-0.00066519		 0.00029697		-0.00044070
O		5.59944998		0.16718293		2.54822110		-0.00066525		-0.00029701		-0.00044066
O		2.70487930		9.41902237		2.50206174		 0.00066525		 0.00029701		 0.00044066
O		6.85704394		4.96028606		5.02720267		 0.00066213		-0.00029732		 0.00043942
O		1.44728534		4.62591923		0.02308017		-0.00066213		 0.00029732		-0.00043942
O		0.72959996		4.96028606		2.54822110		-0.00066213		-0.00029737		-0.00043938
O		7.57472933		4.62591923		2.50206174		 0.00066213		 0.00029737		 0.00043938
