# total energy = -20638.7437289 eV

CRYSTAL
PRIMVEC
		10.08460366		0.00000000		-0.00013262
		0.00000000		5.93416008		0.00000000
		-0.00006121		0.00000000		4.74272723
PRIMECORD
   28 1
Mg		0.00000000		0.00000000		0.00000000		 0.00000010		-0.00000002		-0.00000003
Mg		5.04227224		0.00000000		2.37129730		-0.00000012		-0.00000002		 0.00000005
Mg		0.00000000		2.96708004		0.00000000		 0.00000010		 0.00000001		-0.00000001
Mg		5.04227224		2.96708004		2.37129730		-0.00000012		 0.00000003		 0.00000005
Mg		2.78074415		1.48354002		4.69688719		 0.00019191		-0.00000001		-0.00009374
Mg		7.30380034		4.45062006		0.04570742		-0.00019197		 0.00000003		 0.00009373
Mg		2.26114860		4.45062006		2.32545115		-0.00011816		 0.00000005		-0.00011812
Mg		7.82339691		1.48354002		2.41714244		 0.00011821		-0.00000006		 0.00011818
Si		0.94933095		1.48354002		2.01811328		 0.00007414		 0.00000004		 0.00004055
Si		9.13521353		4.45062006		2.72448133		-0.00007400		-0.00000003		-0.00004020
Si		4.09289946		4.45062006		4.38940956		-0.00010549		 0.00000003		 0.00004379
Si		5.99164502		1.48354002		0.35318505		 0.00010529		-0.00000004		-0.00004453
O		0.92358158		1.48354002		3.63686074		 0.00033460		-0.00000001		-0.00017446
O		9.16096291		4.45062006		1.10573387		-0.00033483		-0.00000002		 0.00017431
O		4.11855397		4.45062006		1.26545020		-0.00032779		-0.00000006		-0.00017106
O		5.96599052		1.48354002		3.47714441		 0.00032809		 0.00000006		 0.00017147
O		4.48592306		1.48354002		1.05754445		-0.00010292		-0.00000001		-0.00007803
O		5.59862143		4.45062006		3.68505016		 0.00010298		-0.00000002		 0.00007806
O		0.55629104		4.45062006		3.42900600		 0.00013390		 0.00000001		-0.00007908
O		9.52825345		1.48354002		1.31358861		-0.00013418		 0.00000001		 0.00007908
O		1.65598669		0.18271337		1.30036045		-0.00008770		-0.00002752		 0.00006199
O		8.42855780		5.75144773		3.44223416		 0.00008758		 0.00002744		-0.00006206
O		3.38615803		5.75144773		3.67170366		 0.00009947		 0.00003470		 0.00005544
O		6.69838645		0.18271235		1.07088993		-0.00009921		-0.00003489		-0.00005541
O		8.42855780		3.14979341		3.44223416		 0.00008756		-0.00002739		-0.00006204
O		1.65598669		2.78436667		1.30036045		-0.00008772		 0.00002749		 0.00006197
O		6.69838645		2.78436769		1.07089095		-0.00009922		 0.00003492		-0.00005542
O		3.38615803		3.14979239		3.67170366		 0.00009950		-0.00003470		 0.00005548
