# total energy = -24715.8114166 eV	

CRYSTAL	
PRIMVEC	
		10.16505003		0.00000000		0.00000000	
		0.00000000		8.73899516		0.00000000	
		1.69513391		0.00000000		4.94514436	
PRIMCOORD
   40 1	
Si		2.47538180		3.58299005		0.99397519		 0.00055598		 0.00013728		 0.00020443	
Si		9.38480112		5.15601020		3.95117223		-0.00055598		-0.00013728		-0.00020443	
Si		3.45471017		7.95248966		1.47859903		-0.00055598		 0.00013728		-0.00020443	
Si		8.40547377		0.78650956		3.46654839		 0.00055598		-0.00013728		 0.00020443	
Si		8.53723417		3.58299005		1.47859903		 0.00024891		-0.00033868		-0.00043118	
Si		3.32294876		5.15601020		3.46654839		-0.00024891		 0.00033868		 0.00043118	
Si		7.55790682		7.95248966		0.99397519		-0.00024891		-0.00033868		 0.00043118	
Si		4.30227611		0.78650956		3.95117223		 0.00024891		 0.00033868		-0.00043118	
O		4.23553340		3.67038000		0.49451545		 0.00046182		 0.00084652		-0.00025082	
O		7.62464952		5.06862126		4.45063196		-0.00046182		-0.00084652		 0.00025082	
O		1.69455755		8.03987962		1.97805876		-0.00046182		 0.00084652		 0.00025082	
O		10.16562537		0.69911961		2.96708764		 0.00046182		-0.00084652		-0.00025082	
O		9.03179943		2.18474981		0.78627780		 0.00027781		-0.00070173		 0.00052524	
O		2.82838451		6.55425044		4.15886860		-0.00027781		 0.00070173		-0.00052524	
O		7.06334156		6.55425044		1.68629540		-0.00027781		-0.00070173		-0.00052524	
O		4.79684137		2.18474981		3.25885202		 0.00027781		 0.00070173		 0.00052524	
O		3.13513421		4.28210966		4.69788867		 0.00000695		-0.00034122		 0.00019420	
O		8.72504871		4.45688957		0.24725671		-0.00000695		 0.00034122		-0.00019420	
O		4.49009065		8.65161029		2.71983093		-0.00000695		-0.00034122		-0.00019420	
O		7.37009227		0.08738995		2.22531649		 0.00000695		 0.00034122		 0.00019420	
O		9.57261567		4.28210966		2.71983093		-0.00005284		 0.00013272		-0.00045665	
O		2.28756827		4.45688957		2.22531649		 0.00005284		-0.00013272		 0.00045665	
O		8.21765923		8.65161029		4.69788867		 0.00005284		 0.00013272		 0.00045665	
O		3.64252370		0.08738995		0.24725671		-0.00005284		-0.00013272		-0.00045665	
O		1.98081654		2.18474981		1.68629540		 0.00078664		 0.00015150		 0.00037178	
O		9.87936638		6.55425044		3.25885202		-0.00078664		-0.00015150		-0.00037178	
O		3.94927441		6.55425044		0.78627780		-0.00078664		 0.00015150		-0.00037178	
O		7.91090953		2.18474981		4.15886758		 0.00078664		-0.00015150		 0.00037178	
O		6.77708358		3.67038000		1.97805876		 0.00060034		-0.00050574		 0.00018300	
O		5.08310036		5.06862126		2.96708764		-0.00060034		 0.00050574		-0.00018300	
O		9.31805842		8.03987962		0.49451545		-0.00060034		-0.00050574		-0.00018300	
O		2.54212450		0.69911961		4.45063196		 0.00060034		 0.00050574		 0.00018300	
Mg		0.42378297		0.79524947		1.23628660		 0.00046069		-0.00035029		-0.00021466	
Mg		1.27134992		7.94375077		3.70885980		-0.00046069		 0.00035029		 0.00021466	
Mg		5.50630799		5.16474909		1.23628660		-0.00046069		-0.00035029		 0.00021466	
Mg		6.35387494		3.57425116		3.70885980		 0.00046069		 0.00035029		-0.00021466	
Mg		0.33902678		6.02990971		0.98902887		 0.00008444		-0.00020442		-0.00000609	
Mg		1.35610713		2.70908952		3.95611651		-0.00008444		 0.00020442		 0.00000609	
Mg		5.59106519		1.66041010		1.48354433		-0.00008444		-0.00020442		 0.00000609	
Mg		6.26911774		7.07859015		3.46160309		 0.00008444		 0.00020442		-0.00000609	
