# total energy = -24715.8011128 eV	

CRYSTAL	
PRIMVEC	
		10.40707505		0.00000000		0.00000000	
		0.00000000		8.73899784		0.00000000	
		1.73549424		0.00000000		4.94515066	
PRIMCOORD
   40 1	
Si		2.53432051		3.58299047		0.99397453		-0.00047676		-0.00033883		-0.00017343	
Si		9.60824878		5.15601049		3.95117197		 0.00047676		 0.00033883		 0.00017343	
Si		3.53696518		7.95249042		1.47859872		 0.00047676		-0.00033883		 0.00017343	
Si		8.60560411		0.78650949		3.46654778		-0.00047676		 0.00033883		-0.00017343	
Si		8.74050166		3.58299047		1.47859872		 0.00037533		-0.00021313		-0.00019576	
Si		3.40206659		5.15601049		3.46654778		-0.00037533		 0.00021313		 0.00019576	
Si		7.73785699		7.95249042		0.99397453		-0.00037533		-0.00021313		 0.00019576	
Si		4.40471230		0.78650949		3.95117197		 0.00037533		 0.00021313		-0.00019576	
O		4.33637944		3.67037972		0.49451507		 0.00014491		 0.00087039		 0.00063385	
O		7.80618984		5.06862124		4.45063248		-0.00014491		-0.00087039		-0.00063385	
O		1.73490520		8.03987967		1.97805922		-0.00014491		 0.00087039		-0.00063385	
O		10.40766305		0.69912024		2.96708832		 0.00014491		-0.00087039		 0.00063385	
O		9.24684228		2.18474998		0.78627846		 0.00012560		-0.00049117		-0.00048461	
O		2.89572700		6.55424994		4.15886909		-0.00012560		 0.00049117		 0.00048461	
O		7.23151741		6.55424994		1.68629479		-0.00012560		-0.00049117		 0.00048461	
O		4.91105084		2.18474998		3.25885171		 0.00012560		 0.00049117		-0.00048461	
O		3.20978027		4.28210967		4.69788897		-0.00026191		-0.00008402		 0.00004116	
O		8.93278798		4.45689025		0.24725649		 0.00026191		 0.00008402		-0.00004116	
O		4.59699758		8.65160963		2.71983078		 0.00026191		-0.00008402		-0.00004116	
O		7.54557067		0.08739029		2.22531572		-0.00026191		 0.00008402		 0.00004116	
O		9.80053510		4.28210967		2.71983078		-0.00021223		 0.00024771		 0.00004327	
O		2.34203315		4.45689025		2.22531572		 0.00021223		-0.00024771		-0.00004327	
O		8.41331675		8.65160963		4.69788897		 0.00021223		 0.00024771		-0.00004327	
O		3.72925150		0.08739029		0.24725649		-0.00021223		-0.00024771		 0.00004327	
O		2.02797988		2.18474998		1.68629479		-0.00018241		-0.00038669		-0.00044336	
O		10.11458941		6.55424994		3.25885171		 0.00018241		 0.00038669		 0.00044336	
O		4.04330372		6.55424994		0.78627846		 0.00018241		-0.00038669		 0.00044336	
O		8.09926453		2.18474998		4.15886804		-0.00018241		 0.00038669		-0.00044336	
O		6.93844272		3.67037972		1.97805922		 0.00030008		 0.00087692		 0.00015534	
O		5.20412552		5.06862124		2.96708832		-0.00030008		-0.00087692		-0.00015534	
O		9.53991592		8.03987967		0.49451507		-0.00030008		 0.00087692		-0.00015534	
O		2.60265232		0.69912024		4.45063248		 0.00030008		-0.00087692		 0.00015534	
Mg		0.43387304		0.79524935		1.23628663		-0.00040010		-0.00052178		-0.00040967	
Mg		1.30162016		7.94375056		3.70885988		 0.00040010		 0.00052178		 0.00040967	
Mg		5.63741056		5.16474931		1.23628663		 0.00040010		-0.00052178		 0.00040967	
Mg		6.50515768		3.57425060		3.70885988		-0.00040010		 0.00052178		-0.00040967	
Mg		0.34709885		6.02991028		0.98902909		-0.00036548		 0.00022262		 0.00054863	
Mg		1.38839539		2.70908964		3.95611741		 0.00036548		-0.00022262		-0.00054863	
Mg		5.72418580		1.66041032		1.48354416		 0.00036548		 0.00022262		-0.00054863	
Mg		6.41838349		7.07858960		3.46160338		-0.00036548		-0.00022262		 0.00054863	
