# total energy = -22442.913556 eV

CRYSTAL
PRIMVEC
		9.05300002		0.00000000		0.00000000
		0.00000000		7.67699834		0.00000000
		-0.52464851		0.00000000		4.36780092
PRIMECORD
   40 1
Ca		6.64561268		0.51819825		0.39353934		 0.00020321		 0.00018715		 0.00027988
Ca		1.88274336		7.15880280		3.97425886		-0.00020321		-0.00018715		-0.00027988
Ca		2.14506490		4.35669742		1.79036021		-0.00020321		 0.00018715		-0.00027988
Ca		6.38329114		3.32030273		2.57743709		 0.00020321		-0.00018715		 0.00027988
Mg		1.97928999		1.25979557		1.76109639		 0.00045609		-0.00003189		 0.00013367
Mg		6.54906696		6.41720368		2.60670091		-0.00045609		 0.00003189		-0.00013367
Mg		6.81138940		5.09829564		0.42280317		-0.00045609		-0.00003189		-0.00013367
Mg		1.71696845		2.57870360		3.94499504		 0.00045609		 0.00003189		 0.00013367
Si		4.38151984		1.27438176		2.02097996		-0.00008822		-0.00003878		 0.00006053
Si		4.14683711		6.40261839		2.34681825		 0.00008822		 0.00003878		-0.00006053
Si		4.40915865		5.11288183		0.16291869		 0.00008822		-0.00003878		-0.00006053
Si		4.11919830		2.56411831		4.20487861		-0.00008822		 0.00003878		 0.00006053
Si		0.14788438		6.55846126		1.15047788		-0.00053900		 0.00039870		-0.00019498
Si		8.38047347		1.11853889		3.21732033		 0.00053900		-0.00039870		 0.00019498
Si		8.64279501		2.71996118		1.03342077		 0.00053900		 0.00039870		 0.00019498
Si		-0.11443807		4.95703896		3.33437562		-0.00053900		-0.00039870		-0.00019498
O		3.50493414		1.29971568		0.49312415		 0.00029808		-0.00050098		-0.00033197
O		5.02342190		6.37728357		3.87467315		-0.00029808		 0.00050098		 0.00033197
O		5.28574434		5.13821575		1.69077359		-0.00029808		-0.00050098		 0.00033197
O		3.24261170		2.53878440		2.67702280		 0.00029808		 0.00050098		-0.00033197
O		3.49747718		3.70875881		0.37431982		 0.00008803		 0.00002912		-0.00019714
O		5.03087976		3.96824133		3.99347657		-0.00008803		-0.00002912		 0.00019714
O		5.29320220		7.54725889		1.80957883		-0.00008803		 0.00002912		 0.00019714
O		3.23515474		0.12974126		2.55821938		 0.00008803		-0.00002912		-0.00019714
O		5.43097891		2.25089628		1.16751200		 0.00036690		-0.00021776		 0.00023674
O		3.09737713		5.42610387		3.20028530		-0.00036690		 0.00021776		-0.00023674
O		3.35969867		6.08939726		1.01638574		-0.00036690		-0.00021776		-0.00023674
O		5.16865737		1.58760379		3.35141065		 0.00036690		 0.00021776		 0.00023674
O		1.17630971		2.69923343		0.94693928		 0.00001465		-0.00006728		 0.00005967
O		7.35204724		4.97776671		3.42085893		-0.00001465		 0.00006728		-0.00005967
O		7.61436878		6.53773260		1.23696028		-0.00001465		-0.00006728		-0.00005967
O		0.91398817		1.13926664		3.13083702		 0.00001465		 0.00006728		 0.00005967
O		0.85195973		0.22186459		0.86613401		 0.00020795		-0.00013606		 0.00010634
O		7.67639631		7.45513465		3.50166329		-0.00020795		 0.00013606		-0.00010634
O		7.93871785		4.06036557		1.31776464		-0.00020795		-0.00013606		-0.00010634
O		0.58963819		3.61663458		3.05003266		 0.00020795		 0.00013606		 0.00010634
O		0.94307183		5.44299314		0.30356158		-0.00081704		-0.00001105		 0.00076176
O		7.58528420		2.23400700		4.06423572		 0.00081704		 0.00001105		-0.00076176
O		7.84760574		1.60449307		1.88033707		 0.00081704		-0.00001105		-0.00076176
O		0.68075029		6.07250708		2.48746113		-0.00081704		 0.00001105		 0.00076176
