# total energy = -22446.9903197 eV

CRYSTAL
PRIMVEC
		9.05300002		0.00000000		0.00000000
		0.00000000		7.67699834		0.00000000
		-0.52464851		0.00000000		4.48584299
PRIMECORD
   40 1
Ca		6.64561268		0.51819825		0.40417481		 0.00008468		 0.00033371		 0.00040142
Ca		1.88274336		7.15880280		4.08167090		-0.00008468		-0.00033371		-0.00040142
Ca		2.14506490		4.35669742		1.83874759		-0.00008468		 0.00033371		-0.00040142
Ca		6.38329114		3.32030273		2.64709811		 0.00008468		-0.00033371		 0.00040142
Mg		1.97928999		1.25979557		1.80869344		 0.00018755		 0.00003588		-0.00030572
Mg		6.54906696		6.41720368		2.67715317		-0.00018755		-0.00003588		 0.00030572
Mg		6.81138940		5.09829564		0.43422986		-0.00018755		 0.00003588		 0.00030572
Mg		1.71696845		2.57870360		4.05161584		 0.00018755		-0.00003588		-0.00030572
Si		4.38151984		1.27438176		2.07560123		-0.00020576		-0.00008463		 0.00013647
Si		4.14683711		6.40261839		2.41024538		 0.00020576		 0.00008463		-0.00013647
Si		4.40915865		5.11288183		0.16732207		 0.00020576		-0.00008463		-0.00013647
Si		4.11919830		2.56411831		4.31852363		-0.00020576		 0.00008463		 0.00013647
Si		0.14788438		6.55846126		1.18157221		-0.00002413		 0.00093249		-0.00029805
Si		8.38047347		1.11853889		3.30427439		 0.00002413		-0.00093249		 0.00029805
Si		8.64279501		2.71996118		1.06135109		 0.00002413		 0.00093249		 0.00029805
Si		-0.11443807		4.95703896		3.42449461		-0.00002413		-0.00093249		-0.00029805
O		3.50493414		1.29971568		0.50645198		 0.00003761		-0.00049107		-0.00054597
O		5.02342190		6.37728357		3.97939372		-0.00003761		 0.00049107		 0.00054597
O		5.28574434		5.13821575		1.73647132		-0.00003761		-0.00049107		 0.00054597
O		3.24261170		2.53878440		2.74937528		 0.00003761		 0.00049107		-0.00054597
O		3.49747718		3.70875881		0.38443655		-0.00009941		-0.00004473		-0.00030198
O		5.03087976		3.96824133		4.10140915		 0.00009941		 0.00004473		 0.00030198
O		5.29320220		7.54725889		1.85848585		 0.00009941		-0.00004473		 0.00030198
O		3.23515474		0.12974126		2.62735986		-0.00009941		 0.00004473		-0.00030198
O		5.43097891		2.25089628		1.19906714		 0.00010838		-0.00021838		 0.00031646
O		3.09737713		5.42610387		3.28677857		-0.00010838		 0.00021838		-0.00031646
O		3.35969867		6.08939726		1.04385617		-0.00010838		-0.00021838		-0.00031646
O		5.16865737		1.58760379		3.44199044		 0.00010838		 0.00021838		 0.00031646
O		1.17630971		2.69923343		0.97253120		 0.00033816		 0.00022434		-0.00003829
O		7.35204724		4.97776671		3.51331541		-0.00033816		-0.00022434		 0.00003829
O		7.61436878		6.53773260		1.27039210		-0.00033816		 0.00022434		 0.00003829
O		0.91398817		1.13926664		3.21545360		 0.00033816		-0.00022434		-0.00003829
O		0.85195973		0.22186459		0.88954326		-0.00004669		-0.00006683		-0.00019351
O		7.67639631		7.45513465		3.59630335		 0.00004669		 0.00006683		 0.00019351
O		7.93871785		4.06036557		1.35338005		 0.00004669		-0.00006683		 0.00019351
O		0.58963819		3.61663458		3.13246565		-0.00004669		 0.00006683		-0.00019351
O		0.94307183		5.44299314		0.31176631		-0.00039651		 0.00052536		 0.00087656
O		7.58528420		2.23400700		4.17408030		 0.00039651		-0.00052536		-0.00087656
O		7.84760574		1.60449307		1.93115700		 0.00039651		 0.00052536		-0.00087656
O		0.68075029		6.07250708		2.55468871		-0.00039651		-0.00052536		 0.00087656
