# total energy = -22437.9136576 eV

CRYSTAL
PRIMVEC
		9.05300002		0.00000000		0.00000000
		0.00000000		7.67699834		0.00000000
		-0.52464851		0.00000000		4.24974980
PRIMECORD
   40 1
Ca		6.64561268		0.51819825		0.38290207		 0.00038693		 0.00011452		 0.00015589
Ca		1.88274336		7.15880280		3.86684683		-0.00038693		-0.00011452		-0.00015589
Ca		2.14506490		4.35669742		1.74197193		-0.00038693		 0.00011452		-0.00015589
Ca		6.38329114		3.32030273		2.50777697		 0.00038693		-0.00011452		 0.00015589
Mg		1.97928999		1.25979557		1.71349934		 0.00032146		 0.00006051		 0.00074714
Mg		6.54906696		6.41720368		2.53624956		-0.00032146		-0.00006051		-0.00074714
Mg		6.81138940		5.09829564		0.41137556		-0.00032146		 0.00006051		-0.00074714
Mg		1.71696845		2.57870360		3.83837333		 0.00032146		-0.00006051		 0.00074714
Si		4.38151984		1.27438176		1.96635868		 0.00012701		 0.00022979		-0.00015039
Si		4.14683711		6.40261839		2.28339021		-0.00012701		-0.00022979		 0.00015039
Si		4.40915865		5.11288183		0.15851622		-0.00012701		 0.00022979		 0.00015039
Si		4.11919830		2.56411831		4.09123268		 0.00012701		-0.00022979		-0.00015039
Si		0.14788438		6.55846126		1.11938444		-0.00011185		 0.00014244		 0.00002223
Si		8.38047347		1.11853889		3.13036536		 0.00011185		-0.00014244		-0.00002223
Si		8.64279501		2.71996118		1.00549136		 0.00011185		 0.00014244		-0.00002223
Si		-0.11443807		4.95703896		3.24425844		-0.00011185		-0.00014244		 0.00002223
O		3.50493414		1.29971568		0.47979723		 0.00042966		-0.00078274		-0.00048360
O		5.02342190		6.37728357		3.76995166		-0.00042966		 0.00078274		 0.00048360
O		5.28574434		5.13821575		1.64507767		-0.00042966		-0.00078274		 0.00048360
O		3.24261170		2.53878440		2.60467123		 0.00042966		 0.00078274		-0.00048360
O		3.49747718		3.70875881		0.36420310		 0.00000043		 0.00009764		-0.00014823
O		5.03087976		3.96824133		3.88554580		-0.00000043		-0.00009764		 0.00014823
O		5.29320220		7.54725889		1.76067090		-0.00000043		 0.00009764		 0.00014823
O		3.23515474		0.12974126		2.48907800		 0.00000043		-0.00009764		-0.00014823
O		5.43097891		2.25089628		1.13595777		 0.00027631		 0.00022486		-0.00004001
O		3.09737713		5.42610387		3.11379113		-0.00027631		-0.00022486		 0.00004001
O		3.35969867		6.08939726		0.98891713		-0.00027631		 0.00022486		 0.00004001
O		5.16865737		1.58760379		3.26083176		 0.00027631		-0.00022486		-0.00004001
O		1.17630971		2.69923343		0.92134644		 0.00055628		-0.00034717		 0.00018834
O		7.35204724		4.97776671		3.32840426		-0.00055628		 0.00034717		-0.00018834
O		7.61436878		6.53773260		1.20352936		-0.00055628		-0.00034717		-0.00018834
O		0.91398817		1.13926664		3.04622044		 0.00055628		 0.00034717		 0.00018834
O		0.85195973		0.22186459		0.84272476		 0.00034215		-0.00000316		-0.00000367
O		7.67639631		7.45513465		3.40702413		-0.00034215		 0.00000316		 0.00000367
O		7.93871785		4.06036557		1.28214923		-0.00034215		-0.00000316		 0.00000367
O		0.58963819		3.61663458		2.96759966		 0.00034215		 0.00000316		-0.00000367
O		0.94307183		5.44299314		0.29535775		-0.00087418		-0.00025049		 0.00052121
O		7.58528420		2.23400700		3.95439205		 0.00087418		 0.00025049		-0.00052121
O		7.84760574		1.60449307		1.82951715		 0.00087418		-0.00025049		-0.00052121
O		0.68075029		6.07250708		2.42023174		-0.00087418		 0.00025049		 0.00052121
