# total energy = -22458.4450799 eV

CRYSTAL
PRIMVEC
		9.05300002		0.00000000		0.00000000
		0.00000000		7.67699834		0.00000000
		-0.52464851		0.00000000		5.07608954
PRIMECORD
   40 1
Ca		6.64561268		0.51819825		0.45735575		 0.00013405		 0.00018161		 0.00066803
Ca		1.88274336		7.15880280		4.61873379		-0.00013405		-0.00018161		-0.00066803
Ca		2.14506490		4.35669742		2.08068902		-0.00013405		 0.00018161		-0.00066803
Ca		6.38329114		3.32030273		2.99539961		 0.00013405		-0.00018161		 0.00066803
Mg		1.97928999		1.25979557		2.04667871		 0.00028713		-0.00086313		 0.00081524
Mg		6.54906696		6.41720368		3.02940992		-0.00028713		 0.00086313		-0.00081524
Mg		6.81138940		5.09829564		0.49136516		-0.00028713		-0.00086313		-0.00081524
Mg		1.71696845		2.57870360		4.58472438		 0.00028713		 0.00086313		 0.00081524
Si		4.38151984		1.27438176		2.34870580		 0.00033075		 0.00044740		 0.00063740
Si		4.14683711		6.40261839		2.72738283		-0.00033075		-0.00044740		-0.00063740
Si		4.40915865		5.11288183		0.18933806		-0.00033075		 0.00044740		-0.00063740
Si		4.11919830		2.56411831		4.88675057		 0.00033075		-0.00044740		 0.00063740
Si		0.14788438		6.55846126		1.33704210		-0.00030537		 0.00011611		 0.00012303
Si		8.38047347		1.11853889		3.73904744		 0.00030537		-0.00011611		-0.00012303
Si		8.64279501		2.71996118		1.20100267		 0.00030537		 0.00011611		-0.00012303
Si		-0.11443807		4.95703896		3.87508596		-0.00030537		-0.00011611		 0.00012303
O		3.50493414		1.29971568		0.57309021		 0.00020830		-0.00050549		-0.00019060
O		5.02342190		6.37728357		4.50299933		-0.00020830		 0.00050549		 0.00019060
O		5.28574434		5.13821575		1.96495365		-0.00020830		-0.00050549		 0.00019060
O		3.24261170		2.53878440		3.11113498		 0.00020830		 0.00050549		-0.00019060
O		3.49747718		3.70875881		0.43502109		 0.00050136		-0.00057125		 0.00068832
O		5.03087976		3.96824133		4.64106844		-0.00050136		 0.00057125		-0.00068832
O		5.29320220		7.54725889		2.10302367		-0.00050136		-0.00057125		-0.00068832
O		3.23515474		0.12974126		2.97306496		 0.00050136		 0.00057125		 0.00068832
O		5.43097891		2.25089628		1.35683920		 0.00018129		 0.00000214		 0.00079192
O		3.09737713		5.42610387		3.71925034		-0.00018129		-0.00000214		-0.00079192
O		3.35969867		6.08939726		1.18120557		-0.00018129		 0.00000214		-0.00079192
O		5.16865737		1.58760379		3.89488306		 0.00018129		-0.00000214		 0.00079192
O		1.17630971		2.69923343		1.10049626		 0.00047985		-0.00090548		-0.00031050
O		7.35204724		4.97776671		3.97559327		-0.00047985		 0.00090548		 0.00031050
O		7.61436878		6.53773260		1.43754760		-0.00047985		-0.00090548		 0.00031050
O		0.91398817		1.13926664		3.63854103		 0.00047985		 0.00090548		-0.00031050
O		0.85195973		0.22186459		1.00658768		-0.00001062		-0.00024682		-0.00004588
O		7.67639631		7.45513465		4.06950095		 0.00001062		 0.00024682		 0.00004588
O		7.93871785		4.06036557		1.53145618		 0.00001062		-0.00024682		 0.00004588
O		0.58963819		3.61663458		3.54463336		-0.00001062		 0.00024682		-0.00004588
O		0.94307183		5.44299314		0.35278817		-0.00003556		 0.00039106		-0.00029842
O		7.58528420		2.23400700		4.72330137		 0.00003556		-0.00039106		 0.00029842
O		7.84760574		1.60449307		2.18525569		 0.00003556		 0.00039106		 0.00029842
O		0.68075029		6.07250708		2.89083294		-0.00003556		-0.00039106		-0.00029842
