# total energy = -117598.010746 eV	

CRYSTAL	
PRIMVEC	
		10.58799967		0.00000000		0.00000000	
		0.00000000		14.09700041		0.00000000	
		-2.45393833		0.00000000		9.28104876	
PRIMCOORD
   156 1	
Si		8.18330189		0.01395604		0.68819033		 0.00019315		 0.00015676		 0.00007681	
Si		-0.04923632		14.08304331		8.59285525		-0.00019315		-0.00015676		-0.00007681	
Si		1.17773073		7.06245625		3.95233299		-0.00019315		 0.00015676		-0.00007681	
Si		6.95633484		7.03454416		5.32871153		 0.00019315		-0.00015676		 0.00007681	
Si		3.61492732		2.67335451		6.25152559		 0.00013311		 0.00012531		 0.00020977	
Si		4.51914037		11.42364484		3.02951893		-0.00013311		-0.00012531		-0.00020977	
Si		3.29217333		9.72185471		7.67004120		-0.00013311		 0.00012531		-0.00020977	
Si		4.84189437		4.37514464		1.61100438		 0.00013311		-0.00012531		 0.00020977	
Si		1.21183891		1.76917322		3.96068586		-0.00000947		 0.00015963		 0.00000197	
Si		6.92222666		12.32782613		5.32035866		 0.00000947		-0.00015963		-0.00000197	
Si		8.14919371		8.81767236		0.67983640		 0.00000947		 0.00015963		-0.00000197	
Si		-0.01512708		5.27932699		8.60120812		-0.00000947		-0.00015963		 0.00000197	
Si		6.86524205		1.73858343		5.31803883		-0.00013595		 0.00002687		-0.00027105	
Si		1.26882459		12.35841698		3.96300569		 0.00013595		-0.00002687		 0.00027105	
Si		0.04185754		8.78708257		8.60352795		 0.00013595		 0.00002687		 0.00027105	
Si		8.09220909		5.30991678		0.67751551		-0.00013595		-0.00002687		-0.00027105	
Mg		4.06703279		0.00000000		4.64052226		0.00000000		0.00000000		0.00000000	
Mg		5.29399984		7.04850020		0.00000000		0.00000000		0.00000000		-0.00000000	
Mg		4.39572559		2.46006772		3.30767204		-0.00046157		-0.00017362		-0.00007095	
Mg		3.73834104		11.63693268		5.97337248		 0.00046157		 0.00017362		 0.00007095	
Mg		4.96530809		9.50856793		1.33285128		 0.00046157		-0.00017362		 0.00007095	
Mg		3.16875854		4.58843248		7.94819324		-0.00046157		 0.00017362		-0.00007095	
Mg		5.29399984		0.00000000		0.00000000		0.00000000		0.00000000		0.00000000	
Mg		4.06703279		7.04850020		4.64052226		0.00000000		0.00000000		0.00000000	
Mg		6.19165257		0.03510240		2.72064475		 0.00038013		-0.00007488		 0.00028997	
Mg		1.94241301		14.06189907		6.56039871		-0.00038013		 0.00007488		-0.00028997	
Mg		3.16938006		7.08360048		1.91987645		-0.00038013		-0.00007488		-0.00028997	
Mg		4.96468552		7.01339781		7.36116807		 0.00038013		 0.00007488		 0.00028997	
Mg		0.42170944		0.00493401		1.41443076		 0.00014121		-0.00012357		 0.00018708	
Mg		7.71235825		14.09206534		7.86661270		-0.00014121		 0.00012357		-0.00018708	
Mg		8.93932424		7.05343421		3.22609044		-0.00014121		-0.00012357		-0.00018708	
Mg		-0.80525761		7.04356620		6.05495408		 0.00014121		 0.00012357		 0.00018708	
Mg		-0.86838750		0.00493401		5.89086444		 0.00007700		 0.00043507		 0.00059892	
Mg		9.00245519		14.09206534		3.39018009		-0.00007700		-0.00043507		-0.00059892	
Mg		7.77548814		7.05343421		8.03070129		-0.00007700		 0.00043507		-0.00059892	
Mg		0.35857849		7.04356620		1.25034323		 0.00007700		-0.00043507		 0.00059892	
Mg		3.19404057		0.03904854		1.99960091		 0.00007279		-0.00008731		-0.00021588	
Mg		4.94002607		14.05795081		7.28144361		-0.00007279		 0.00008731		 0.00021588	
Mg		6.16699311		7.08754875		2.64092135		-0.00007279		-0.00008731		 0.00021588	
Mg		1.96707352		7.00945060		6.64012317		 0.00007279		 0.00008731		-0.00021588	
Mg		6.57114024		2.39564398		1.14722988		 0.00073280		 0.00013879		 0.00015195	
Mg		1.56292640		11.70135537		8.13381464		-0.00073280		-0.00013879		-0.00015195	
Mg		2.78989239		9.44414419		3.49329238		-0.00073280		 0.00013879		-0.00015195	
Mg		5.34417319		4.65285622		5.78775320		 0.00073280		-0.00013879		 0.00015195	
Mg		-1.63791484		2.43920407		8.99992148		 0.00001082		 0.00029061		 0.00002104	
Mg		9.77198042		11.65779528		0.28112304		-0.00001082		-0.00029061		-0.00002104	
Mg		8.54501337		9.48770322		4.92164530		-0.00001082		 0.00029061		-0.00002104	
Mg		-0.41094780		4.60929613		4.35939922		 0.00001082		-0.00029061		 0.00002104	
Mg		0.46893509		2.49798759		6.97906728		 0.00025032		-0.00007590		 0.00029445	
Mg		7.66513154		11.59901070		2.30197830		-0.00025032		 0.00007590		-0.00029445	
Mg		6.43816449		9.54648885		6.94249950		-0.00025032		-0.00007590		-0.00029445	
Mg		1.69590108		4.55051050		2.33854502		 0.00025032		 0.00007590		 0.00029445	
Mg		6.00405545		2.48008540		8.30523541		-0.00017880		-0.00017420		 0.00004155	
Mg		2.13001119		11.61691501		0.97580911		 0.00017880		 0.00017420		-0.00004155	
Mg		0.90304414		9.52858560		5.61633031		 0.00017880		-0.00017420		-0.00004155	
Mg		7.23102249		4.56841481		3.66471421		-0.00017880		 0.00017420		 0.00004155	
Mg		3.60529224		2.37633041		0.41857539		-0.00069853		-0.00019772		 0.00015776	
Mg		4.52877334		11.72066894		8.86247019		 0.00069853		 0.00019772		-0.00015776	
Mg		5.75574038		9.42483062		4.22194687		 0.00069853		-0.00019772		-0.00015776	
Mg		2.37832519		4.67216873		5.05909659		-0.00069853		 0.00019772		 0.00015776	
Mg		9.40458318		2.50221643		1.84525647		 0.00003728		-0.00050574		-0.00000381	
Mg		-1.27051655		11.59478186		7.43578806		-0.00003728		 0.00050574		 0.00000381	
Mg		-0.04354950		9.55071770		2.79526474		-0.00003728		-0.00050574		 0.00000381	
Mg		8.17761719		4.54628165		6.48577979		 0.00003728		 0.00050574		-0.00000381	
O		3.63390525		1.06009382		6.21458829		 0.00007477		-0.00046429		-0.00002410	
O		4.50016138		13.03690447		3.06645729		-0.00007477		 0.00046429		 0.00002410	
O		3.27319539		8.10859508		7.70697955		-0.00007477		-0.00046429		 0.00002410	
O		4.86087230		5.98840532		1.57406497		 0.00007477		 0.00046429		-0.00002410	
O		5.72267194		1.22502944		4.28134555		-0.00073884		-0.00063557		 0.00010397	
O		2.41139469		12.87197096		4.99969897		 0.00073884		 0.00063557		-0.00010397	
O		3.63836068		8.27352859		0.35917671		 0.00073884		-0.00063557		-0.00010397	
O		4.49570490		5.82347076		8.92186781		-0.00073884		 0.00063557		 0.00010397	
O		6.88739955		3.38327989		5.31432562		 0.00009505		 0.00019078		 0.00012645	
O		1.24666708		10.71371946		3.96671784		-0.00009505		-0.00019078		-0.00012645	
O		0.01970003		10.43178009		8.60724116		-0.00009505		 0.00019078		-0.00012645	
O		8.11436554		3.66522032		0.67380442		 0.00009505		-0.00019078		 0.00012645	
O		6.50173167		1.20952332		6.76495357		-0.00057062		-0.00008600		 0.00004890	
O		1.63233497		12.88747709		2.51609095		 0.00057062		 0.00008600		-0.00004890	
O		0.40536792		8.25802246		7.15661321		 0.00057062		-0.00008600		-0.00004890	
O		7.72869871		5.83897794		2.12443131		-0.00057062		 0.00008600		 0.00004890	
O		1.23586097		3.41852310		3.94351636		-0.00021910		 0.00042073		 0.00033116	
O		6.89820461		10.67847625		5.33752922		 0.00021910		-0.00042073		-0.00033116	
O		8.12517166		10.46702225		0.69700696		 0.00021910		 0.00042073		-0.00033116	
O		0.00889392		3.62997710		8.58403756		-0.00021910		-0.00042073		 0.00033116	
O		2.73335141		1.23348714		3.56577677		 0.00019662		 0.00003027		 0.00025844	
O		5.40071417		12.86351221		5.71526776		-0.00019662		-0.00003027		-0.00025844	
O		6.62768122		8.28198628		1.07474549		-0.00019662		 0.00003027		-0.00025844	
O		1.50638648		5.81501201		8.20630009		 0.00019662		-0.00003027		 0.00025844	
O		0.80050677		1.22784903		5.39785541		-0.00028271		 0.00004225		 0.00014900	
O		7.33355880		12.86915032		3.88318911		 0.00028271		-0.00004225		-0.00014900	
O		6.10659175		8.27634923		8.52371032		 0.00028271		 0.00004225		-0.00014900	
O		2.02747382		5.82065117		0.75733315		-0.00028271		-0.00004225		 0.00014900	
O		0.07524997		1.24194589		2.94301921		 0.00008915		-0.00021599		 0.00016114	
O		8.05881560		12.85505346		6.33802531		-0.00008915		 0.00021599		-0.00016114	
O		9.28578265		8.29044610		1.69750305		-0.00008915		-0.00021599		-0.00016114	
O		-1.15171602		5.80655431		7.58354147		 0.00008915		 0.00021599		 0.00016114	
O		3.98348606		3.40160560		4.91245703		 0.00006724		-0.00068704		-0.00031622	
O		4.15057952		10.69539375		4.36858749		-0.00006724		 0.00068704		 0.00031622	
O		2.92361247		10.45010580		9.00910975		-0.00006724		-0.00068704		 0.00031622	
O		5.21045311		3.64689355		0.27193371		 0.00006724		 0.00068704		-0.00031622	
O		4.65489441		3.36354385		7.23457371		 0.00031094		 0.00026881		-0.00030477	
O		3.47917116		10.73345549		2.04646975		-0.00031094		-0.00026881		 0.00030477	
O		2.25220517		10.41204512		6.68699307		-0.00031094		 0.00026881		 0.00030477	
O		5.88186146		3.68495635		2.59405145		 0.00031094		-0.00026881		-0.00030477	
O		4.87379495		1.19965530		1.59726751		-0.00001382		 0.00008337		 0.00031058	
O		3.26027062		12.89734510		7.68377701		 0.00001382		-0.00008337		-0.00031058	
O		4.48723767		8.24815445		3.04325475		 0.00001382		 0.00008337		-0.00031058	
O		3.64682896		5.84884490		6.23778977		-0.00001382		-0.00008337		 0.00031058	
O		4.67919493		1.04881654		9.00075688		-0.00005543		 0.00035169		 0.00019203	
O		3.45487170		13.04818281		0.28028764		 0.00005543		-0.00035169		-0.00019203	
O		2.22790466		8.09731675		4.92080991		 0.00005543		 0.00035169		-0.00019203	
O		5.90616198		5.99968260		4.36023462		-0.00005543		-0.00035169		 0.00019203	
O		7.85626399		1.06714331		2.03440473		 0.00003713		 0.00016158		 0.00037326	
O		0.27780158		13.02985710		7.24663979		-0.00003713		-0.00016158		-0.00037326	
O		1.50476863		8.11564246		2.60611647		-0.00003713		 0.00016158		-0.00037326	
O		6.62929800		5.98135689		6.67492805		 0.00003713		-0.00016158		 0.00037326	
O		-1.10338921		1.00652595		7.62901905		 0.00018425		 0.00020264		-0.00022911	
O		9.23745584		13.09047339		1.65202547		-0.00018425		-0.00020264		 0.00022911	
O		8.01048880		8.05502616		6.29254773		-0.00018425		 0.00020264		 0.00022911	
O		0.12357784		6.04197425		2.98849679		 0.00018425		-0.00020264		-0.00022911	
O		9.65343718		1.12212044		0.25894118		-0.00029437		-0.00023786		-0.00000979	
O		-1.51937054		12.97487891		9.02210334		 0.00029437		 0.00023786		 0.00000979	
O		-0.29240349		8.17062064		4.38158108		 0.00029437		-0.00023786		 0.00000979	
O		8.42647013		5.92637870		4.89946238		-0.00029437		 0.00023786		-0.00000979	
O		1.35807613		1.03471968		8.20258793		 0.00018036		 0.00046663		-0.00012838	
O		6.77599050		13.06227967		1.07845659		-0.00018036		-0.00046663		 0.00012838	
O		5.54902345		8.08321988		5.71897991		-0.00018036		 0.00046663		 0.00012838	
O		2.58504318		6.01377947		3.56206461		 0.00018036		-0.00046663		-0.00012838	
O		2.03629998		1.02767125		0.65988226		 0.00024882		 0.00011092		 0.00007474	
O		6.09776666		13.06932810		8.62116226		-0.00024882		-0.00011092		-0.00007474	
O		7.32473264		8.07617039		3.98064000		-0.00024882		 0.00011092		-0.00007474	
O		0.80933293		6.02082896		5.30040452		 0.00024882		-0.00011092		 0.00007474	
O		2.21259335		3.37200155		6.64058799		-0.00013632		 0.00046525		-0.00013522	
O		5.92147434		10.72499780		2.64045653		 0.00013632		-0.00046525		 0.00013522	
O		4.69450729		10.42050175		7.28097985		 0.00013632		 0.00046525		 0.00013522	
O		3.43956040		3.67649760		2.00006467		-0.00013632		-0.00046525		-0.00013522	
O		8.35511654		1.20106351		4.90503167		-0.00010266		-0.00017409		 0.00025002	
O		-0.22104990		12.89593584		4.37601179		 0.00010266		 0.00017409		-0.00025002	
O		-1.44801695		8.24956477		9.01653511		 0.00010266		-0.00017409		-0.00025002	
O		9.58208359		5.84743458		0.26451047		-0.00010266		 0.00017409		 0.00025002	
O		-0.84821948		3.49182700		5.91109704		 0.00030853		 0.00065542		 0.00019396	
O		8.98228717		10.60517341		3.36994642		-0.00030853		-0.00065542		-0.00019396	
O		7.75532012		10.54032614		8.01046974		-0.00030853		 0.00065542		-0.00019396	
O		0.37874651		3.55667320		1.27057478		 0.00030853		-0.00065542		 0.00019396	
O		8.86703150		3.49746617		3.37737178		 0.00032753		-0.00025868		 0.00000235	
O		-0.73296592		10.59953424		5.90367274		-0.00032753		 0.00025868		-0.00000235	
O		0.49400112		10.54596531		1.26315048		-0.00032753		-0.00025868		-0.00000235	
O		7.64006445		3.55103509		8.01789510		 0.00032753		 0.00025868		 0.00000235	
H		-1.20765983		2.72072098		5.56862714		-0.00039839		-0.00019596		 0.00072520	
H		9.34172647		11.37627837		3.71241739		 0.00039839		 0.00019596		-0.00072520	
H		8.11475942		9.76922119		8.35293965		 0.00039839		-0.00019596		-0.00072520	
H		0.01930722		4.32777922		0.92810488		-0.00039839		 0.00019596		 0.00072520	
H		8.69894806		2.87578753		3.86091514		 0.00021954		-0.00027289		-0.00004402	
H		-0.56488143		11.22121182		5.42012938		-0.00021954		 0.00027289		 0.00004402	
H		0.66208562		9.92428774		0.77960818		-0.00021954		-0.00027289		 0.00004402	
H		7.47198101		4.17271161		8.50143634		 0.00021954		 0.00027289		-0.00004402	
