# total energy = -117601.336998 eV	

CRYSTAL	
PRIMVEC	
		10.58799967		0.00000000		0.00000000	
		0.00000000		14.09700041		0.00000000	
		-2.45393833		0.00000000		10.25799290	
PRIMCOORD
   156 1	
Si		8.18330189		0.01395604		0.76063131		 0.00037498		 0.00005795		-0.00001869	
Si		-0.04923632		14.08304331		9.49736583		-0.00037498		-0.00005795		 0.00001869	
Si		1.17773073		7.06245625		4.36836832		-0.00037498		 0.00005795		 0.00001869	
Si		6.95633484		7.03454416		5.88962882		 0.00037498		-0.00005795		-0.00001869	
Si		3.61492732		2.67335451		6.90958035		-0.00004887		-0.00010906		-0.00016426	
Si		4.51914037		11.42364484		3.34841466		 0.00004887		 0.00010906		 0.00016426	
Si		3.29217333		9.72185471		8.47741323		 0.00004887		-0.00010906		 0.00016426	
Si		4.84189437		4.37514464		1.78058285		-0.00004887		 0.00010906		-0.00016426	
Si		1.21183891		1.76917322		4.37759999		 0.00001630		-0.00009493		-0.00002327	
Si		6.92222666		12.32782613		5.88039714		-0.00001630		 0.00009493		 0.00002327	
Si		8.14919371		8.81767236		0.75139751		-0.00001630		-0.00009493		 0.00002327	
Si		-0.01512708		5.27932699		9.50659856		 0.00001630		 0.00009493		-0.00002327	
Si		6.86524205		1.73858343		5.87783167		 0.00002213		 0.00009748		 0.00006976	
Si		1.26882459		12.35841698		4.38016441		-0.00002213		-0.00009748		-0.00006976	
Si		0.04185754		8.78708257		9.50916297		-0.00002213		 0.00009748		-0.00006976	
Si		8.09220909		5.30991678		0.74883416		 0.00002213		-0.00009748		 0.00006976	
Mg		4.06703279		0.00000000		5.12899751		0.00000000		0.00000000		-0.00000000	
Mg		5.29399984		7.04850020		0.00000000		0.00000000		0.00000000		0.00000000	
Mg		4.39572559		2.46006772		3.65584676		 0.00016337		 0.00013878		 0.00020558	
Mg		3.73834104		11.63693268		6.60214931		-0.00016337		-0.00013878		-0.00020558	
Mg		4.96530809		9.50856793		1.47315075		-0.00016337		 0.00013878		-0.00020558	
Mg		3.16875854		4.58843248		8.78484533		 0.00016337		-0.00013878		 0.00020558	
Mg		5.29399984		0.00000000		0.00000000		0.00000000		0.00000000		0.00000000	
Mg		4.06703279		7.04850020		5.12899751		0.00000000		-0.00000000		0.00000000	
Mg		6.19165257		0.03510240		3.00702896		-0.00026443		 0.00010096		-0.00010453	
Mg		1.94241301		14.06189907		7.25096817		 0.00026443		-0.00010096		 0.00010453	
Mg		3.16938006		7.08360048		2.12196854		 0.00026443		 0.00010096		 0.00010453	
Mg		4.96468552		7.01339781		8.13602753		-0.00026443		-0.00010096		-0.00010453	
Mg		0.42170944		0.00493401		1.56331921		 0.00009550		 0.00010960		 0.00017067	
Mg		7.71235825		14.09206534		8.69467792		-0.00009550		-0.00010960		-0.00017067	
Mg		8.93932424		7.05343421		3.56568042		-0.00009550		 0.00010960		-0.00017067	
Mg		-0.80525761		7.04356620		6.69231672		 0.00009550		-0.00010960		 0.00017067	
Mg		-0.86838750		0.00493401		6.51095593		 0.00000223		 0.00003569		-0.00048184	
Mg		9.00245519		14.09206534		3.74704120		-0.00000223		-0.00003569		 0.00048184	
Mg		7.77548814		7.05343421		8.87603871		-0.00000223		 0.00003569		 0.00048184	
Mg		0.35857849		7.04356620		1.38195842		 0.00000223		-0.00003569		-0.00048184	
Mg		3.19404057		0.03904854		2.21008505		 0.00003510		 0.00019366		 0.00013394	
Mg		4.94002607		14.05795081		8.04791208		-0.00003510		-0.00019366		-0.00013394	
Mg		6.16699311		7.08754875		2.91891246		-0.00003510		 0.00019366		-0.00013394	
Mg		1.96707352		7.00945060		7.33908362		 0.00003510		-0.00019366		 0.00013394	
Mg		6.57114024		2.39564398		1.26799131		-0.00019481		-0.00002755		 0.00011171	
Mg		1.56292640		11.70135537		8.99000582		 0.00019481		 0.00002755		-0.00011171	
Mg		2.78989239		9.44414419		3.86100831		 0.00019481		-0.00002755		-0.00011171	
Mg		5.34417319		4.65285622		6.39698988		-0.00019481		 0.00002755		 0.00011171	
Mg		-1.63791484		2.43920407		9.94728170		 0.00012041		-0.00004787		 0.00027816	
Mg		9.77198042		11.65779528		0.31071544		-0.00012041		 0.00004787		-0.00027816	
Mg		8.54501337		9.48770322		5.43971295		-0.00012041		-0.00004787		-0.00027816	
Mg		-0.41094780		4.60929613		4.81828419		 0.00012041		 0.00004787		 0.00027816	
Mg		0.46893509		2.49798759		7.71370611		-0.00013371		-0.00000473		 0.00004445	
Mg		7.66513154		11.59901070		2.54429103		 0.00013371		 0.00000473		-0.00004445	
Mg		6.43816449		9.54648885		7.67328854		 0.00013371		-0.00000473		-0.00004445	
Mg		1.69590108		4.55051050		2.58470648		-0.00013371		 0.00000473		 0.00004445	
Mg		6.00405545		2.48008540		9.17947066		-0.00041385		-0.00048374		 0.00001946	
Mg		2.13001119		11.61691501		1.07852541		 0.00041385		 0.00048374		-0.00001946	
Mg		0.90304414		9.52858560		6.20752398		 0.00041385		-0.00048374		-0.00001946	
Mg		7.23102249		4.56841481		4.05047316		-0.00041385		 0.00048374		 0.00001946	
Mg		3.60529224		2.37633041		0.46263629		 0.00017494		 0.00003405		-0.00020115	
Mg		4.52877334		11.72066894		9.79536084		-0.00017494		-0.00003405		 0.00020115	
Mg		5.75574038		9.42483062		4.66636333		-0.00017494		 0.00003405		 0.00020115	
Mg		2.37832519		4.67216873		5.59163380		 0.00017494		-0.00003405		-0.00020115	
Mg		9.40458318		2.50221643		2.03949544		-0.00020528		-0.00012732		 0.00011370	
Mg		-1.27051655		11.59478186		8.21850170		 0.00020528		 0.00012732		-0.00011370	
Mg		-0.04354950		9.55071770		3.08950419		 0.00020528		-0.00012732		-0.00011370	
Mg		8.17761719		4.54628165		7.16849295		-0.00020528		 0.00012732		 0.00011370	
O		3.63390525		1.06009382		6.86875514		 0.00010734		-0.00011189		-0.00000781	
O		4.50016138		13.03690447		3.38924199		-0.00010734		 0.00011189		 0.00000781	
O		3.27319539		8.10859508		8.51824056		-0.00010734		-0.00011189		 0.00000781	
O		4.86087230		5.98840532		1.73975552		 0.00010734		 0.00011189		-0.00000781	
O		5.72267194		1.22502944		4.73201422		 0.00013161		 0.00018094		-0.00012962	
O		2.41139469		12.87197096		5.52598291		-0.00013161		-0.00018094		 0.00012962	
O		3.63836068		8.27352859		0.39698540		-0.00013161		 0.00018094		 0.00012962	
O		4.49570490		5.82347076		9.86101279		 0.00013161		-0.00018094		-0.00012962	
O		6.88739955		3.38327989		5.87372882		-0.00002164		 0.00006126		 0.00013459	
O		1.24666708		10.71371946		4.38426832		 0.00002164		-0.00006126		-0.00013459	
O		0.01970003		10.43178009		9.51326582		 0.00002164		 0.00006126		-0.00013459	
O		8.11436554		3.66522032		0.74473131		-0.00002164		-0.00006126		 0.00013459	
O		6.50173167		1.20952332		7.47705373		-0.00009036		-0.00042376		-0.00006837	
O		1.63233497		12.88747709		2.78094341		 0.00009036		 0.00042376		 0.00006837	
O		0.40536792		8.25802246		7.90994092		 0.00009036		-0.00042376		 0.00006837	
O		7.72869871		5.83897794		2.34805622		-0.00009036		 0.00042376		-0.00006837	
O		1.23586097		3.41852310		4.35862312		-0.00006398		-0.00012173		 0.00019381	
O		6.89820461		10.67847625		5.89937401		 0.00006398		 0.00012173		-0.00019381	
O		8.12517166		10.46702225		0.77037650		 0.00006398		-0.00012173		-0.00019381	
O		0.00889392		3.62997710		9.48762063		-0.00006398		 0.00012173		 0.00019381	
O		2.73335141		1.23348714		3.94112135		 0.00010079		 0.00024581		-0.00003575	
O		5.40071417		12.86351221		6.31687472		-0.00010079		-0.00024581		 0.00003575	
O		6.62768122		8.28198628		1.18787615		-0.00010079		 0.00024581		 0.00003575	
O		1.50638648		5.81501201		9.07012098		 0.00010079		-0.00024581		-0.00003575	
O		0.80050677		1.22784903		5.96605088		 0.00014709		-0.00021704		 0.00008022	
O		7.33355880		12.86915032		4.29194625		-0.00014709		 0.00021704		-0.00008022	
O		6.10659175		8.27634923		9.42094376		-0.00014709		-0.00021704		-0.00008022	
O		2.02747382		5.82065117		0.83705337		 0.00014709		 0.00021704		 0.00008022	
O		0.07524997		1.24194589		3.25281138		 0.00002879		-0.00002465		-0.00005262	
O		8.05881560		12.85505346		7.00518576		-0.00002879		 0.00002465		 0.00005262	
O		9.28578265		8.29044610		1.87618825		-0.00002879		-0.00002465		 0.00005262	
O		-1.15171602		5.80655431		8.38180889		 0.00002879		 0.00002465		-0.00005262	
O		3.98348606		3.40160560		5.42955694		 0.00007233		-0.00020656		-0.00022173	
O		4.15057952		10.69539375		4.82843914		-0.00007233		 0.00020656		 0.00022173	
O		2.92361247		10.45010580		9.95743770		-0.00007233		-0.00020656		 0.00022173	
O		5.21045311		3.64689355		0.30055943		 0.00007233		 0.00020656		-0.00022173	
O		4.65489441		3.36354385		7.99610923		-0.00018677		-0.00023063		 0.00002945	
O		3.47917116		10.73345549		2.26188790		 0.00018677		 0.00023063		-0.00002945	
O		2.25220517		10.41204512		7.39088647		 0.00018677		-0.00023063		-0.00002945	
O		5.88186146		3.68495635		2.86710961		-0.00018677		 0.00023063		 0.00002945	
O		4.87379495		1.19965530		1.76540071		-0.00029861		-0.00051495		 0.00007197	
O		3.26027062		12.89734510		8.49259536		 0.00029861		 0.00051495		-0.00007197	
O		4.48723767		8.24815445		3.36359679		 0.00029861		-0.00051495		-0.00007197	
O		3.64682896		5.84884490		6.89439928		-0.00029861		 0.00051495		 0.00007197	
O		4.67919493		1.04881654		9.94820497		 0.00011528		-0.00009479		-0.00005554	
O		3.45487170		13.04818281		0.30979216		-0.00011528		 0.00009479		 0.00005554	
O		2.22790466		8.09731675		5.43878967		-0.00011528		-0.00009479		 0.00005554	
O		5.90616198		5.99968260		4.81920640		 0.00011528		 0.00009479		-0.00005554	
O		7.85626399		1.06714331		2.24855337		 0.00028130		-0.00002090		-0.00002418	
O		0.27780158		13.02985710		8.00944376		-0.00028130		 0.00002090		 0.00002418	
O		1.50476863		8.11564246		2.88044519		-0.00028130		-0.00002090		 0.00002418	
O		6.62929800		5.98135689		7.37755194		 0.00028130		 0.00002090		-0.00002418	
O		-1.10338921		1.00652595		8.43207330		-0.00013312		-0.00016712		 0.00017522	
O		9.23745584		13.09047339		1.82592278		 0.00013312		 0.00016712		-0.00017522	
O		8.01048880		8.05502616		6.95492134		 0.00013312		-0.00016712		-0.00017522	
O		0.12357784		6.04197425		3.30307473		-0.00013312		 0.00016712		 0.00017522	
O		9.65343718		1.12212044		0.28619787		 0.00003128		-0.00021633		 0.00008450	
O		-1.51937054		12.97487891		9.97179821		-0.00003128		 0.00021633		-0.00008450	
O		-0.29240349		8.17062064		4.84279964		-0.00003128		-0.00021633		-0.00008450	
O		8.42647013		5.92637870		5.41519537		 0.00003128		 0.00021633		 0.00008450	
O		1.35807613		1.03471968		9.06601813		 0.00025045		 0.00001946		-0.00015057	
O		6.77599050		13.06227967		1.19197900		-0.00025045		-0.00001946		 0.00015057	
O		5.54902345		8.08321988		6.32097651		-0.00025045		 0.00001946		 0.00015057	
O		2.58504318		6.01377947		3.93701956		 0.00025045		-0.00001946		-0.00015057	
O		2.03629998		1.02767125		0.72934377		-0.00016943		-0.00002465		-0.00001832	
O		6.09776666		13.06932810		9.52865231		 0.00016943		 0.00002465		 0.00001832	
O		7.32473264		8.07617039		4.39965480		 0.00016943		-0.00002465		 0.00001832	
O		0.80933293		6.02082896		5.85834234		-0.00016943		 0.00002465		-0.00001832	
O		2.21259335		3.37200155		7.33959714		 0.00022172		 0.00022607		-0.00005461	
O		5.92147434		10.72499780		2.91840000		-0.00022172		-0.00022607		 0.00005461	
O		4.69450729		10.42050175		8.04739856		-0.00022172		 0.00022607		 0.00005461	
O		3.43956040		3.67649760		2.21059751		 0.00022172		-0.00022607		-0.00005461	
O		8.35511654		1.20106351		5.42135230		 0.00009971		 0.00025404		 0.00006621	
O		-0.22104990		12.89593584		4.83664484		-0.00009971		-0.00025404		-0.00006621	
O		-1.44801695		8.24956477		9.96564340		-0.00009971		 0.00025404		-0.00006621	
O		9.58208359		5.84743458		0.29235267		 0.00009971		-0.00025404		 0.00006621	
O		-0.84821948		3.49182700		6.53331779		-0.00015183		 0.00020265		-0.00000485	
O		8.98228717		10.60517341		3.72467935		 0.00015183		-0.00020265		 0.00000485	
O		7.75532012		10.54032614		8.85367686		 0.00015183		 0.00020265		 0.00000485	
O		0.37874651		3.55667320		1.40432028		-0.00015183		-0.00020265		-0.00000485	
O		8.86703150		3.49746617		3.73288505		 0.00004199		 0.00054131		 0.00008820	
O		-0.73296592		10.59953424		6.52511209		-0.00004199		-0.00054131		-0.00008820	
O		0.49400112		10.54596531		1.39611246		-0.00004199		 0.00054131		-0.00008820	
O		7.64006445		3.55103509		8.86188361		 0.00004199		-0.00054131		 0.00008820	
H		-1.20765983		2.72072098		6.15479786		-0.00010076		 0.00013119		 0.00005528	
H		9.34172647		11.37627837		4.10319928		 0.00010076		-0.00013119		-0.00005528	
H		8.11475942		9.76922119		9.23219678		 0.00010076		 0.00013119		-0.00005528	
H		0.01930722		4.32777922		1.02580035		-0.00010076		-0.00013119		 0.00005528	
H		8.69894806		2.87578753		4.26732704		-0.00010504		-0.00018262		 0.00049110	
H		-0.56488143		11.22121182		5.99067010		 0.00010504		 0.00018262		-0.00049110	
H		0.66208562		9.92428774		0.86167153		 0.00010504		-0.00018262		-0.00049110	
H		7.47198101		4.17271161		9.39632454		-0.00010504		 0.00018262		 0.00049110	
