# total energy = -117584.548307 eV	

CRYSTAL	
PRIMVEC	
		10.58799967		0.00000000		0.00000000	
		0.00000000		14.09700041		0.00000000	
		-2.45393833		0.00000000		8.79257139	
PRIMCOORD
   156 1	
Si		8.18330189		0.01395604		0.65196879		 0.00021392		-0.00018262		-0.00008423	
Si		-0.04923632		14.08304331		8.14059943		-0.00021392		 0.00018262		 0.00008423	
Si		1.17773073		7.06245625		3.74431479		-0.00021392		-0.00018262		 0.00008423	
Si		6.95633484		7.03454416		5.04825342		 0.00021392		 0.00018262		-0.00008423	
Si		3.61492732		2.67335451		5.92249820		-0.00004579		 0.00035184		-0.00000363	
Si		4.51914037		11.42364484		2.87007001		 0.00004579		-0.00035184		 0.00000363	
Si		3.29217333		9.72185471		7.26635465		 0.00004579		 0.00035184		 0.00000363	
Si		4.84189437		4.37514464		1.52621357		-0.00004579		-0.00035184		-0.00000363	
Si		1.21183891		1.76917322		3.75222932		-0.00029358		-0.00011564		 0.00004471	
Si		6.92222666		12.32782613		5.04033995		 0.00029358		 0.00011564		-0.00004471	
Si		8.14919371		8.81767236		0.64405637		 0.00029358		-0.00011564		-0.00004471	
Si		-0.01512708		5.27932699		8.14851290		-0.00029358		 0.00011564		 0.00004471	
Si		6.86524205		1.73858343		5.03814188		 0.00005112		 0.00031513		 0.00002669	
Si		1.26882459		12.35841698		3.75442739		-0.00005112		-0.00031513		-0.00002669	
Si		0.04185754		8.78708257		8.15071097		-0.00005112		 0.00031513		-0.00002669	
Si		8.09220909		5.30991678		0.64185830		 0.00005112		-0.00031513		 0.00002669	
Mg		4.06703279		0.00000000		4.39628358		0.00000000		-0.00000000		0.00000000	
Mg		5.29399984		7.04850020		0.00000000		0.00000000		-0.00000000		0.00000000	
Mg		4.39572559		2.46006772		3.13358415		 0.00008538		 0.00022903		 0.00071059	
Mg		3.73834104		11.63693268		5.65898513		-0.00008538		-0.00022903		-0.00071059	
Mg		4.96530809		9.50856793		1.26270049		-0.00008538		 0.00022903		-0.00071059	
Mg		3.16875854		4.58843248		7.52986773		 0.00008538		-0.00022903		 0.00071059	
Mg		5.29399984		0.00000000		0.00000000		0.00000000		0.00000000		-0.00000000	
Mg		4.06703279		7.04850020		4.39628358		0.00000000		0.00000000		0.00000000	
Mg		6.19165257		0.03510240		2.57745370		 0.00036662		 0.00028644		-0.00000736	
Mg		1.94241301		14.06189907		6.21511451		-0.00036662		-0.00028644		 0.00000736	
Mg		3.16938006		7.08360048		1.81883094		-0.00036662		 0.00028644		 0.00000736	
Mg		4.96468552		7.01339781		6.97373728		 0.00036662		-0.00028644		-0.00000736	
Mg		0.42170944		0.00493401		1.33998653		-0.00017445		 0.00009556		-0.00018892	
Mg		7.71235825		14.09206534		7.45258062		 0.00017445		-0.00009556		 0.00018892	
Mg		8.93932424		7.05343421		3.05629704		 0.00017445		 0.00009556		 0.00018892	
Mg		-0.80525761		7.04356620		5.73627223		-0.00017445		-0.00009556		-0.00018892	
Mg		-0.86838750		0.00493401		5.58081922		-0.00005044		-0.00008550		-0.00014611	
Mg		9.00245519		14.09206534		3.21174900		 0.00005044		 0.00008550		 0.00014611	
Mg		7.77548814		7.05343421		7.60803363		 0.00005044		-0.00008550		 0.00014611	
Mg		0.35857849		7.04356620		1.18453458		-0.00005044		 0.00008550		-0.00014611	
Mg		3.19404057		0.03904854		1.89435937		 0.00036703		 0.00022586		-0.00015406	
Mg		4.94002607		14.05795081		6.89820990		-0.00036703		-0.00022586		 0.00015406	
Mg		6.16699311		7.08754875		2.50192632		-0.00036703		 0.00022586		 0.00015406	
Mg		1.96707352		7.00945060		6.29064295		 0.00036703		-0.00022586		-0.00015406	
Mg		6.57114024		2.39564398		1.08684864		-0.00004440		-0.00008458		-0.00022694	
Mg		1.56292640		11.70135537		7.70571852		 0.00004440		 0.00008458		 0.00022694	
Mg		2.78989239		9.44414419		3.30943494		 0.00004440		-0.00008458		 0.00022694	
Mg		5.34417319		4.65285622		5.48313433		-0.00004440		 0.00008458		-0.00022694	
Mg		-1.63791484		2.43920407		8.52624191		-0.00041572		-0.00024258		 0.00048387	
Mg		9.77198042		11.65779528		0.26632737		 0.00041572		 0.00024258		-0.00048387	
Mg		8.54501337		9.48770322		4.66261095		 0.00041572		-0.00024258		-0.00048387	
Mg		-0.41094780		4.60929613		4.12995727		-0.00041572		 0.00024258		 0.00048387	
Mg		0.46893509		2.49798759		6.61174733		-0.00023475		 0.00017839		 0.00016494	
Mg		7.66513154		11.59901070		2.18082088		 0.00023475		-0.00017839		-0.00016494	
Mg		6.43816449		9.54648885		6.57710446		 0.00023475		 0.00017839		-0.00016494	
Mg		1.69590108		4.55051050		2.21546270		-0.00023475		-0.00017839		 0.00016494	
Mg		6.00405545		2.48008540		7.86811726		 0.00001437		-0.00012869		-0.00003785	
Mg		2.13001119		11.61691501		0.92444990		-0.00001437		 0.00012869		 0.00003785	
Mg		0.90304414		9.52858560		5.32073454		-0.00001437		-0.00012869		 0.00003785	
Mg		7.23102249		4.56841481		3.47183368		 0.00001437		 0.00012869		-0.00003785	
Mg		3.60529224		2.37633041		0.39654494		 0.00050435		-0.00002660		-0.00016669	
Mg		4.52877334		11.72066894		8.39602328		-0.00050435		 0.00002660		 0.00016669	
Mg		5.75574038		9.42483062		3.99973864		-0.00050435		-0.00002660		 0.00016669	
Mg		2.37832519		4.67216873		4.79282852		 0.00050435		 0.00002660		-0.00016669	
Mg		9.40458318		2.50221643		1.74813804		-0.00013692		 0.00025720		 0.00018703	
Mg		-1.27051655		11.59478186		7.04443018		 0.00013692		-0.00025720		-0.00018703	
Mg		-0.04354950		9.55071770		2.64814554		 0.00013692		 0.00025720		-0.00018703	
Mg		8.17761719		4.54628165		6.14442268		-0.00013692		-0.00025720		 0.00018703	
O		3.63390525		1.06009382		5.88750380		-0.00023646		 0.00000602		-0.00008528	
O		4.50016138		13.03690447		2.90506441		 0.00023646		-0.00000602		 0.00008528	
O		3.27319539		8.10859508		7.30134905		 0.00023646		 0.00000602		 0.00008528	
O		4.86087230		5.98840532		1.49122023		-0.00023646		-0.00000602		-0.00008528	
O		5.72267194		1.22502944		4.05601174		 0.00002868		 0.00029352		-0.00038208	
O		2.41139469		12.87197096		4.73655648		-0.00002868		-0.00029352		 0.00038208	
O		3.63836068		8.27352859		0.34027290		-0.00002868		 0.00029352		 0.00038208	
O		4.49570490		5.82347076		8.45229532		 0.00002868		-0.00029352		-0.00038208	
O		6.88739955		3.38327989		5.03462455		-0.00003247		 0.00023072		 0.00020992	
O		1.24666708		10.71371946		3.75794367		 0.00003247		-0.00023072		-0.00020992	
O		0.01970003		10.43178009		8.15422724		 0.00003247		 0.00023072		-0.00020992	
O		8.11436554		3.66522032		0.63834097		-0.00003247		-0.00023072		 0.00020992	
O		6.50173167		1.20952332		6.40890244		-0.00005904		 0.00067377		-0.00008052	
O		1.63233497		12.88747709		2.38366472		 0.00005904		-0.00067377		 0.00008052	
O		0.40536792		8.25802246		6.77994936		 0.00005904		 0.00067377		 0.00008052	
O		7.72869871		5.83897794		2.01261886		-0.00005904		-0.00067377		-0.00008052	
O		1.23586097		3.41852310		3.73596192		 0.00022071		 0.00008989		-0.00007214	
O		6.89820461		10.67847625		5.05660630		-0.00022071		-0.00008989		 0.00007214	
O		8.12517166		10.46702225		0.66032166		-0.00022071		 0.00008989		 0.00007214	
O		0.00889392		3.62997710		8.13224656		 0.00022071		-0.00008989		-0.00007214	
O		2.73335141		1.23348714		3.37810447		-0.00006499		-0.00021161		-0.00021494	
O		5.40071417		12.86351221		5.41446374		 0.00006499		 0.00021161		 0.00021494	
O		6.62768122		8.28198628		1.01817911		 0.00006499		-0.00021161		 0.00021494	
O		1.50638648		5.81501201		7.77438911		-0.00006499		 0.00021161		-0.00021494	
O		0.80050677		1.22784903		5.11375820		 0.00007973		 0.00014248		-0.00008960	
O		7.33355880		12.86915032		3.67881107		-0.00007973		-0.00014248		 0.00008960	
O		6.10659175		8.27634923		8.07509465		-0.00007973		 0.00014248		 0.00008960	
O		2.02747382		5.82065117		0.71747356		 0.00007973		-0.00014248		-0.00008960	
O		0.07524997		1.24194589		2.78812313		-0.00010301		-0.00008143		 0.00020344	
O		8.05881560		12.85505346		6.00444508		 0.00010301		 0.00008143		-0.00020344	
O		9.28578265		8.29044610		1.60816045		 0.00010301		-0.00008143		-0.00020344	
O		-1.15171602		5.80655431		7.18440777		-0.00010301		 0.00008143		 0.00020344	
O		3.98348606		3.40160560		4.65390549		 0.00019383		-0.00023886		 0.00011708	
O		4.15057952		10.69539375		4.13866166		-0.00019383		 0.00023886		-0.00011708	
O		2.92361247		10.45010580		8.53494630		-0.00019383		-0.00023886		-0.00011708	
O		5.21045311		3.64689355		0.25762191		 0.00019383		 0.00023886		 0.00011708	
O		4.65489441		3.36354385		6.85380701		-0.00018112		-0.00029965		 0.00003316	
O		3.47917116		10.73345549		1.93876121		 0.00018112		 0.00029965		-0.00003316	
O		2.25220517		10.41204512		6.33504585		 0.00018112		-0.00029965		-0.00003316	
O		5.88186146		3.68495635		2.45752343		-0.00018112		 0.00029965		 0.00003316	
O		4.87379495		1.19965530		1.51320091		-0.00003544		-0.00014754		 0.00004857	
O		3.26027062		12.89734510		7.27936730		 0.00003544		 0.00014754		-0.00004857	
O		4.48723767		8.24815445		2.88308266		 0.00003544		-0.00014754		-0.00004857	
O		3.64682896		5.84884490		5.90948555		-0.00003544		 0.00014754		 0.00004857	
O		4.67919493		1.04881654		8.52703283		 0.00004913		-0.00018781		-0.00025586	
O		3.45487170		13.04818281		0.26553644		-0.00004913		 0.00018781		 0.00025586	
O		2.22790466		8.09731675		4.66182002		-0.00004913		-0.00018781		 0.00025586	
O		5.90616198		5.99968260		4.13074925		 0.00004913		 0.00018781		-0.00025586	
O		7.85626399		1.06714331		1.92733146		 0.00009402		-0.00021954		-0.00063359	
O		0.27780158		13.02985710		6.86523781		-0.00009402		 0.00021954		 0.00063359	
O		1.50476863		8.11564246		2.46895317		-0.00009402		-0.00021954		 0.00063359	
O		6.62929800		5.98135689		6.32361610		 0.00009402		 0.00021954		-0.00063359	
O		-1.10338921		1.00652595		7.22749140		-0.00012798		-0.00007620		-0.00017000	
O		9.23745584		13.09047339		1.56507682		 0.00012798		 0.00007620		 0.00017000	
O		8.01048880		8.05502616		5.96136040		 0.00012798		-0.00007620		 0.00017000	
O		0.12357784		6.04197425		2.83120676		-0.00012798		 0.00007620		-0.00017000	
O		9.65343718		1.12212044		0.24531336		 0.00001567		 0.00015240		 0.00016471	
O		-1.51937054		12.97487891		8.54725591		-0.00001567		-0.00015240		-0.00016471	
O		-0.29240349		8.17062064		4.15097233		-0.00001567		 0.00015240		-0.00016471	
O		8.42647013		5.92637870		4.64159694		 0.00001567		-0.00015240		 0.00016471	
O		1.35807613		1.03471968		7.77087283		-0.00033615		-0.00029709		 0.00022365	
O		6.77599050		13.06227967		1.02169644		 0.00033615		 0.00029709		-0.00022365	
O		5.54902345		8.08321988		5.41798108		 0.00033615		-0.00029709		-0.00022365	
O		2.58504318		6.01377947		3.37458820		-0.00033615		 0.00029709		 0.00022365	
O		2.03629998		1.02767125		0.62515150		 0.00008662		-0.00009470		-0.00018797	
O		6.09776666		13.06932810		8.16741672		-0.00008662		 0.00009470		 0.00018797	
O		7.32473264		8.07617039		3.77113314		-0.00008662		-0.00009470		 0.00018797	
O		0.80933293		6.02082896		5.02143614		 0.00008662		 0.00009470		-0.00018797	
O		2.21259335		3.37200155		6.29108235		 0.00001459		 0.00032453		 0.00030029	
O		5.92147434		10.72499780		2.50148586		-0.00001459		-0.00032453		-0.00030029	
O		4.69450729		10.42050175		6.89776944		-0.00001459		 0.00032453		-0.00030029	
O		3.43956040		3.67649760		1.89479877		 0.00001459		-0.00032453		 0.00030029	
O		8.35511654		1.20106351		4.64687294		 0.00019533		 0.00020361		 0.00013393	
O		-0.22104990		12.89593584		4.14569633		-0.00019533		-0.00020361		-0.00013393	
O		-1.44801695		8.24956477		8.54197991		-0.00019533		 0.00020361		-0.00013393	
O		9.58208359		5.84743458		0.25058831		 0.00019533		-0.00020361		 0.00013393	
O		-0.84821948		3.49182700		5.59998667		-0.00004917		 0.00049795		 0.00022512	
O		8.98228717		10.60517341		3.19258154		 0.00004917		-0.00049795		-0.00022512	
O		7.75532012		10.54032614		7.58886618		 0.00004917		 0.00049795		-0.00022512	
O		0.37874651		3.55667320		1.20370310		-0.00004917		-0.00049795		 0.00022512	
O		8.86703150		3.49746617		3.19961621		 0.00021517		-0.00022252		 0.00070461	
O		-0.73296592		10.59953424		5.59295307		-0.00021517		 0.00022252		-0.00070461	
O		0.49400112		10.54596531		1.19666949		-0.00021517		-0.00022252		-0.00070461	
O		7.64006445		3.55103509		7.59589979		 0.00021517		 0.00022252		 0.00070461	
H		-1.20765983		2.72072098		5.27554072		 0.00017448		 0.00065084		 0.00011966	
H		9.34172647		11.37627837		3.51702644		-0.00017448		-0.00065084		-0.00011966	
H		8.11475942		9.76922119		7.91331213		-0.00017448		 0.00065084		-0.00011966	
H		0.01930722		4.32777922		0.87925714		 0.00017448		-0.00065084		 0.00011966	
H		8.69894806		2.87578753		3.65770919		-0.00006749		 0.00046865		 0.00046106	
H		-0.56488143		11.22121182		5.13486008		 0.00006749		-0.00046865		-0.00046106	
H		0.66208562		9.92428774		0.73857651		 0.00006749		 0.00046865		-0.00046106	
H		7.47198101		4.17271161		8.05399277		-0.00006749		-0.00046865		 0.00046106	
