# total energy = -34530.4480718 eV	

CRYSTAL	
PRIMVEC	
		9.88009316		0.00000934		-0.03895514	
		0.00000000		5.38281668		-0.00000934	
		-0.56457382		-0.00001869		13.85209668	
PRIMCOORD
   56 1	
Si		1.19668793		2.64656649		5.11423088		-0.00009396		 0.00039864		-0.00004218	
Si		8.11883795		2.73623431		8.69890786		 0.00009391		-0.00039860		 0.00004219	
Si		8.40112673		2.64658611		1.77288568		 0.00010057		 0.00037810		-0.00003480	
Si		0.91439915		2.73621469		12.04025306		-0.00010060		-0.00037811		 0.00003474	
Si		6.13673731		5.33797670		5.09474958		-0.00009394		 0.00039860		-0.00004206	
Si		3.17878857		0.04482410		8.71838730		 0.00009394		-0.00039861		 0.00004219	
Si		3.46108109		5.33799071		1.79235764		 0.00010053		 0.00037813		-0.00003478	
Si		5.85444480		0.04481102		12.02077923		-0.00010052		-0.00037810		 0.00003470	
Mg		4.65776248		2.69140087		6.90656890		 0.00000006		-0.00000002		-0.00000000	
Mg		4.94004845		2.69141021		-0.01948037		 0.00000001		-0.00000002		-0.00000002	
Mg		-0.28228597		0.00000000		6.92604928		-0.00000004		-0.00000000		 0.00000001	
Mg		0.00000000		0.00000000		0.00000000		 0.00000003		-0.00000002		 0.00000005	
O		0.62897453		1.08375915		5.20279799		-0.00024238		 0.00015867		-0.00034550	
O		8.68655135		4.29904258		8.61033982		 0.00024245		-0.00015867		 0.00034552	
O		8.96883266		1.08376476		1.68428401		 0.00024111		 0.00016756		 0.00035513	
O		0.34669416		4.29903604		12.12885474		-0.00024116		-0.00016749		-0.00035516	
O		5.56902391		3.77516843		5.18331762		-0.00024244		 0.00015869		-0.00034554	
O		3.74650197		1.60763237		8.62982019		 0.00024245		-0.00015860		 0.00034551	
O		4.02878608		3.77516843		1.70375690		 0.00024114		 0.00016756		 0.00035516	
O		5.28674074		1.60763237		12.10938091		-0.00024118		-0.00016749		-0.00035516	
O		2.59172188		2.76129305		6.02201916		 0.00043707		 0.00006825		-0.00019198	
O		6.72380401		2.62150775		7.79111959		-0.00043710		-0.00006829		 0.00019196	
O		7.00609091		2.76131828		0.86506844		-0.00042619		 0.00006866		 0.00020517	
O		2.30943497		2.62148345		12.94807030		 0.00042624		-0.00006870		-0.00020522	
O		7.53177126		5.45270326		6.00253785		 0.00043705		 0.00006824		-0.00019207	
O		1.78375462		-0.06990246		7.81059902		-0.00043707		-0.00006828		 0.00019200	
O		2.06604433		5.45272195		0.88454040		-0.00042619		 0.00006863		 0.00020528	
O		7.24948155		-0.06992115		12.92859647		 0.00042621		-0.00006865		-0.00020517	
O		0.06399892		3.67108374		5.78818837		-0.00035239		 0.00051430		 0.00034631	
O		9.25152696		1.71171706		8.02494944		 0.00035244		-0.00051428		-0.00034629	
O		9.53382321		3.67110243		1.09889643		 0.00034407		 0.00050572		-0.00033327	
O		-0.21829826		1.71169930		12.71424231		-0.00034402		-0.00050574		 0.00033323	
O		5.00404550		0.97967914		5.76871454		-0.00035247		 0.00051425		 0.00034627	
O		4.31148132		4.40312166		8.04442234		 0.00035239		-0.00051428		-0.00034628	
O		4.59377476		0.97969222		1.11837587		 0.00034403		 0.00050579		-0.00033327	
O		4.72175112		4.40310951		12.69476101		-0.00034404		-0.00050579		 0.00033329	
O		1.46295642		3.21886405		3.60281088		-0.00015976		 0.00053135		-0.00022689	
O		7.85256947		2.16393862		10.21032787		 0.00015983		-0.00053143		 0.00022688	
O		8.13487132		3.21886218		3.28425804		 0.00015132		 0.00054747		 0.00028523	
O		1.18065456		2.16393768		10.52888071		-0.00015140		-0.00054752		-0.00028517	
O		6.40300206		0.52745851		3.58333705		-0.00015980		 0.00053146		-0.00022682	
O		2.91252382		4.85534135		10.22979983		 0.00015978		-0.00053134		 0.00022681	
O		3.19482194		0.52745291		3.30373747		 0.00015135		 0.00054753		 0.00028520	
O		6.12070394		4.85534976		10.50939940		-0.00015138		-0.00054745		-0.00028517	
Ca		1.79340511		2.64938838		1.37787369		-0.00007982		 0.00021909		 0.00026297	
Ca		7.52212078		2.73341336		12.43526505		 0.00007978		-0.00021909		-0.00026299	
Ca		7.80441329		2.64939024		5.50922699		 0.00007960		 0.00021879		-0.00027533	
Ca		1.51111259		2.73341056		8.30391176		-0.00007960		-0.00021879		 0.00027531	
Ca		6.73345449		5.34079859		1.35839239		-0.00007979		 0.00021906		 0.00026293	
Ca		2.58207140		0.04200221		12.45474449		 0.00007983		-0.00021909		-0.00026294	
Ca		2.86436671		5.34079485		5.52869988		 0.00007960		 0.00021877		-0.00027535	
Ca		6.45115917		0.04200595		8.28443699		-0.00007956		-0.00021879		 0.00027539	
Ca		-0.14113738		4.92644172		3.46301716		 0.00000028		 0.00044062		-0.00000651	
Ca		-0.42343363		0.45635348		10.38907485		-0.00000031		-0.00044072		 0.00000650	
Ca		4.79890920		2.23503711		3.44354333		 0.00000031		 0.00044067		-0.00000651	
Ca		4.51661762		3.14776369		10.36959354		-0.00000027		-0.00044066		 0.00000653	
