# total energy = -7174.90815973 eV

CRYSTAL
PRIMVEC
		2.87860014		0.00000000		0.00000000
		-1.43930007		2.69507211		0.00000000
		0.00000000		0.00000000		12.76799926
PRIMECORD
   12 1
O		0.00000000		1.79671397		5.27829132		0.00000000		 0.00051749		-0.00065366
O		1.43930007		0.89835699		7.48970938		0.00000000		-0.00051749		 0.00065366
O		0.00000000		1.79671397		10.41613458		0.00000000		 0.00023426		 0.00045935
O		1.43930007		0.89835699		2.35186525		0.00000000		-0.00023426		-0.00045935
O		0.00000000		0.00000000		0.00000000		0.00000000		0.00000000		0.00000000
H		0.00000000		1.79671397		4.28877108		0.00000000		 0.00053088		-0.00010566
H		1.43930007		0.89835699		8.47922847		0.00000000		-0.00053088		 0.00010566
H		0.00000000		1.79671397		9.42533740		0.00000000		-0.00025606		 0.00048899
H		1.43930007		0.89835699		3.34266215		0.00000000		 0.00025606		-0.00048899
Mg		0.00000000		0.00000000		6.38400021		0.00000000		0.00000000		0.00000000
Mg		1.43930007		0.89835699		11.53333455		0.00000000		-0.00061944		-0.00056425
Mg		0.00000000		1.79671397		1.23466614		0.00000000		 0.00061944		 0.00056425
