# total energy = -7174.59413967 eV

CRYSTAL
PRIMVEC
		2.80079998		0.00000000		0.00000000
		-1.40039999		2.69506978		0.00000000
		0.00000000		0.00000000		12.76800126
PRIMECORD
   12 1
O		0.00000000		1.79671403		5.27829101		0.00000000		 0.00061261		-0.00057238
O		1.40039999		0.89835687		7.48970885		0.00000000		-0.00061261		 0.00057238
O		0.00000000		1.79671403		10.41613395		0.00000000		 0.00027285		 0.00041504
O		1.40039999		0.89835687		2.35186507		0.00000000		-0.00027285		-0.00041504
O		0.00000000		0.00000000		0.00000000		0.00000000		0.00000000		0.00000000
H		0.00000000		1.79671403		4.28877090		0.00000000		 0.00079905		 0.00011115
H		1.40039999		0.89835687		8.47922784		0.00000000		-0.00079905		-0.00011115
H		0.00000000		1.79671403		9.42533695		0.00000000		-0.00015475		 0.00018606
H		1.40039999		0.89835687		3.34266207		0.00000000		 0.00015475		-0.00018606
Mg		0.00000000		0.00000000		6.38400007		0.00000000		0.00000000		0.00000000
Mg		1.40039999		0.89835687		11.53333385		0.00000000		-0.00034680		-0.00025532
Mg		0.00000000		1.79671403		1.23466601		0.00000000		 0.00034680		 0.00025532
