# total energy = -7174.75171114 eV

CRYSTAL
PRIMVEC
		3.42319968		0.00000000		0.00000000
		-1.71159984		2.69507142		0.00000000
		0.00000000		0.00000000		12.76799737
PRIMECORD
   12 1
O		0.00000000		1.79671393		5.27829047		0.00000000		 0.00083833		 0.00043957
O		1.71159984		0.89835680		7.48970827		0.00000000		-0.00083833		-0.00043957
O		0.00000000		1.79671393		10.41613287		0.00000000		 0.00051118		 0.00093173
O		1.71159984		0.89835680		2.35186484		0.00000000		-0.00051118		-0.00093173
O		0.00000000		0.00000000		0.00000000		0.00000000		0.00000000		0.00000000
H		0.00000000		1.79671393		4.28877044		-0.00000000		-0.00029985		 0.00076228
H		1.71159984		0.89835680		8.47922727		-0.00000000		 0.00029985		-0.00076228
H		0.00000000		1.79671393		9.42533599		0.00000000		 0.00037656		-0.00072771
H		1.71159984		0.89835680		3.34266172		0.00000000		-0.00037656		 0.00072771
Mg		0.00000000		0.00000000		6.38399937		0.00000000		0.00000000		0.00000000
Mg		1.71159984		0.89835680		11.53333277		0.00000000		-0.00065658		-0.00085614
Mg		0.00000000		1.79671393		1.23466597		0.00000000		 0.00065658		 0.00085614
