# total energy = -12342.8422404 eV	

CRYSTAL	
PRIMVEC	
		2.46200010		0.00000000		0.00000000	
		0.00000000		8.25432557		0.00000000	
		0.00000000		0.00000000		6.10800066	
PRIMCOORD
   20 1	
O		0.00000000		0.60256591		1.52700017		0.00000000		 0.00044201		 0.00001100	
O		0.00000000		7.65176040		4.58100025		0.00000000		-0.00044201		-0.00001100	
O		1.23100005		4.72972918		1.52700017		0.00000000		 0.00044193		 0.00001123	
O		1.23100005		3.52459712		4.58100025		0.00000000		-0.00044193		-0.00001123	
O		0.00000000		2.99632010		2.69362802		0.00000000		 0.00030271		 0.00003960	
O		0.00000000		5.25800522		3.41437215		0.00000000		-0.00030271		-0.00003960	
O		0.00000000		5.25800522		5.74762811		0.00000000		-0.00029916		 0.00002262	
O		0.00000000		2.99632010		0.36037206		0.00000000		 0.00029916		-0.00002262	
O		1.23100005		7.12348338		2.69362802		0.00000000		 0.00030260		 0.00003944	
O		1.23100005		1.13084293		3.41437215		0.00000000		-0.00030260		-0.00003944	
O		1.23100005		1.13084293		5.74762811		0.00000000		-0.00029921		 0.00002253	
O		1.23100005		7.12348338		0.36037206		0.00000000		 0.00029921		-0.00002253	
Si		0.00000000		0.00000000		0.00000000		0.00000000		0.00000000		0.00000000	
Si		0.00000000		0.00000000		3.05400009		0.00000000		0.00000000		0.00000000	
Si		1.23100005		4.12716328		0.00000000		0.00000000		0.00000000		0.00000000	
Si		1.23100005		4.12716328		3.05400009		0.00000000		0.00000000		0.00000000	
Mg		0.00000000		2.08834407		4.58100025		0.00000000		-0.00051643		 0.00000740	
Mg		0.00000000		6.16598126		1.52700017		0.00000000		 0.00051643		-0.00000740	
Mg		1.23100005		6.21550734		4.58100025		0.00000000		-0.00051641		 0.00000744	
Mg		1.23100005		2.03881798		1.52700017		0.00000000		 0.00051641		-0.00000744	
