# total energy = -24713.0101759 eV

CRYSTAL
PRIMVEC
		9.20099728		0.00000000		-0.73607794
		0.00000000		8.62099611		0.00000000
		-1.36325566		0.00000000		4.88775318
PRIMECORD
   40 1
Si		2.46133865		0.78882227		0.81235239		 0.00019446		-0.00024311		 0.00022503
Si		5.37640574		7.83217846		3.33931824		-0.00019446		 0.00024311		-0.00022503
Si		6.05803264		0.78882227		0.89544257		-0.00018747		-0.00025170		-0.00022046
Si		1.77971175		7.83217846		3.25622714		 0.00018747		 0.00025170		 0.00022046
Si		7.06183914		5.09932217		0.44431158		 0.00023502		-0.00034575		 0.00019929
Si		0.77590525		3.52167856		3.70735813		-0.00023502		 0.00034575		-0.00019929
Si		1.45753308		5.09932217		1.26348339		-0.00023047		-0.00035162		-0.00019634
Si		6.38021224		3.52167856		2.88818725		 0.00023047		 0.00035162		 0.00019634
Mg		-0.34081392		7.80804005		1.22193830		-0.00000017		 0.00032922		 0.00000006
Mg		-1.02244175		0.81295975		3.66581304		 0.00000017		-0.00032922		-0.00000006
Mg		4.25968565		3.49754015		0.85389840		-0.00000009		 0.00033970		 0.00000009
Mg		3.57805874		5.12345965		3.29777315		 0.00000009		-0.00033970		-0.00000009
Mg		-0.34081392		2.36387767		1.22193830		 0.00000016		 0.00031252		 0.00000022
Mg		-1.02244175		6.25712213		3.66581304		-0.00000016		-0.00031252		-0.00000022
Mg		4.25968565		6.67437757		0.85389840		 0.00000019		 0.00029473		 0.00000028
Mg		3.57805874		1.94662223		3.29777315		-0.00000019		-0.00029473		-0.00000028
O		0.92842924		0.78795922		0.58996354		-0.00052000		 0.00047241		-0.00004024
O		6.90931608		7.83304058		3.56170710		 0.00052000		-0.00047241		 0.00004024
O		7.59094298		0.78795922		1.11783235		 0.00051468		 0.00047284		 0.00003864
O		0.24680141		7.83304058		3.03383920		-0.00051468		-0.00047284		-0.00003864
O		5.52892880		5.09846005		0.22192364		-0.00056144		 0.00048368		-0.00004791
O		2.30881467		3.52254068		3.92974699		 0.00056144		-0.00048368		 0.00004791
O		2.99044250		5.09846005		1.48587224		 0.00055774		 0.00048406		 0.00004666
O		4.84730190		3.52254068		2.66579931		-0.00055774		-0.00048406		-0.00004666
O		2.99606473		2.04835043		1.51409418		 0.00044854		 0.00024211		-0.00011108
O		4.84167874		6.57265123		2.63757553		-0.00044854		-0.00024211		 0.00011108
O		5.52330657		2.04835043		0.19370079		-0.00045129		 0.00024966		 0.00010790
O		2.31443782		6.57265123		3.95796892		 0.00045129		-0.00024966		-0.00010790
O		7.59656522		6.35885033		1.14605429		 0.00047295		 0.00032963		-0.00008883
O		0.24117917		2.26215040		3.00561634		-0.00047295		-0.00032963		 0.00008883
O		0.92280700		6.35885033		0.56174068		-0.00047473		 0.00033456		 0.00008675
O		6.91493831		2.26215040		3.58992903		 0.00047473		-0.00033456		-0.00008675
O		2.03737825		0.52846694		4.20951106		 0.00076686		 0.00021722		 0.00016654
O		5.80036706		8.09253286		-0.05784135		-0.00076686		-0.00021722		-0.00016654
O		5.11873923		0.52846694		2.38603431		-0.00076631		 0.00021828		-0.00016751
O		2.71900608		8.09253286		1.76563632		 0.00076631		-0.00021828		 0.00016751
O		6.63787782		4.83896685		3.84147117		 0.00075055		 0.00021840		 0.00017347
O		1.19986565		3.78203296		0.31019854		-0.00075055		-0.00021840		-0.00017347
O		0.51823874		4.83896685		2.75407421		-0.00075030		 0.00021924		-0.00017414
O		7.31950565		3.78203296		1.39759643		 0.00075030		-0.00021924		 0.00017414
