# total energy = -24712.8956493 eV

CRYSTAL
PRIMVEC
		9.20099728		0.00000000		0.73607794
		0.00000000		8.62099611		0.00000000
		-0.59373600		0.00000000		4.73118720
PRIMECORD
   40 1
Si		2.62386101		0.78882227		1.21916825		-0.00030557		-0.00035545		-0.00005556
Si		5.98339935		7.83217846		4.24810150		 0.00030557		 0.00035545		 0.00005556
Si		6.28026920		0.78882227		1.88250698		 0.00030529		-0.00035516		 0.00005523
Si		2.32699116		7.83217846		3.58476278		-0.00030529		 0.00035516		-0.00005523
Si		7.22436057		5.09932217		1.58720815		-0.00032707		-0.00036939		-0.00006740
Si		1.38289887		3.52167856		3.88006161		 0.00032707		 0.00036939		 0.00006740
Si		1.67976871		5.09932217		1.51446709		 0.00032723		-0.00036955		 0.00006759
Si		6.92749073		3.52167856		3.95280267		-0.00032723		 0.00036955		-0.00006759
Mg		-0.14843492		7.80804005		1.18279772		 0.00000001		 0.00073138		-0.00000000
Mg		-0.44530477		0.81295975		3.54839317		-0.00000001		-0.00073138		0.00000000
Mg		4.45206464		3.49754015		1.55083762		-0.00000001		 0.00073304		 0.00000001
Mg		4.15519480		5.12345965		3.91643306		 0.00000001		-0.00073304		-0.00000001
Mg		-0.14843492		2.36387767		1.18279772		 0.00000001		-0.00001089		 0.00000001
Mg		-0.44530477		6.25712213		3.54839317		-0.00000001		 0.00001089		-0.00000001
Mg		4.45206464		6.67437757		1.55083762		-0.00000002		-0.00001277		-0.00000001
Mg		4.15519480		1.94662223		3.91643306		 0.00000002		 0.00001277		 0.00000001
O		1.03539199		0.78795922		0.74706857		 0.00012644		-0.00080151		-0.00059678
O		7.57186745		7.83304058		4.72020119		-0.00012644		 0.00080151		 0.00059678
O		7.86873822		0.78795922		2.35460574		-0.00012629		-0.00080152		 0.00059686
O		0.73852215		7.83304058		3.11266494		 0.00012629		 0.00080152		-0.00059686
O		5.63589156		5.09846005		1.11510938		 0.00013906		-0.00080028		-0.00059370
O		2.97136788		3.52254068		4.35216130		-0.00013906		 0.00080028		 0.00059370
O		3.26823773		5.09846005		1.98656585		-0.00013914		-0.00080029		 0.00059364
O		5.33902171		3.52254068		3.48070483		 0.00013914		 0.00080029		-0.00059364
O		3.27847701		2.04835043		2.01605696		-0.00069227		-0.00010563		-0.00054208
O		5.32878335		6.57265123		3.45121279		 0.00069227		 0.00010563		 0.00054208
O		5.62565320		2.04835043		1.08561827		 0.00069246		-0.00010592		 0.00054221
O		2.98160716		6.57265123		4.38165333		-0.00069246		 0.00010592		-0.00054221
O		7.87897657		6.35885033		2.38409685		-0.00068271		-0.00009057		-0.00053426
O		0.72828287		2.26215040		3.08317290		 0.00068271		 0.00009057		 0.00053426
O		1.02515271		6.35885033		0.71757838		 0.00068255		-0.00009038		 0.00053422
O		7.58210673		2.26215040		4.74969323		-0.00068255		 0.00009038		-0.00053422
O		2.74148487		0.52846694		4.59182022		-0.00024108		 0.00045003		-0.00046688
O		5.86577457		8.09253286		0.87545138		 0.00024108		-0.00045003		 0.00046688
O		5.56890472		0.52846694		3.24104590		 0.00024100		 0.00045002		 0.00046699
O		3.03835471		8.09253286		2.22622477		-0.00024100		-0.00045002		-0.00046699
O		7.34198443		4.83896685		4.95986011		-0.00023730		 0.00045203		-0.00046611
O		1.26527501		3.78203296		0.50741056		 0.00023730		-0.00045203		 0.00046611
O		0.96840516		4.83896685		2.87300601		 0.00023736		 0.00045203		 0.00046607
O		7.63885520		3.78203296		2.59426467		-0.00023736		-0.00045203		-0.00046607
