# total energy = -24715.0117745 eV

CRYSTAL
PRIMVEC
		9.20099997		0.00000000		0.36803963
		0.00000000		8.62100237		0.00000000
		-0.78611748		0.00000000		4.77033433
PRIMECORD
   40 1
Si		2.58322972		0.78882197		1.11746364		 0.00002845		-0.00015690		-0.00033140
Si		5.83165093		7.83217856		4.02090571		-0.00002845		 0.00015690		 0.00033140
Si		6.22470967		0.78882197		1.63574131		-0.00002858		-0.00015678		 0.00033124
Si		2.19017099		7.83217856		3.50262897		 0.00002858		 0.00015678		-0.00033124
Si		7.18373063		5.09932224		1.30148438		 0.00007496		-0.00012793		-0.00030612
Si		1.23115095		3.52167922		3.83688590		-0.00007496		 0.00012793		 0.00030612
Si		1.62420968		5.09932224		1.45172057		-0.00007476		-0.00012817		 0.00030637
Si		6.79067097		3.52167922		3.68664878		 0.00007476		 0.00012817		-0.00030637
Mg		-0.19653029		7.80803977		1.19258266		-0.00000000		 0.00090156		-0.00000003
Mg		-0.58958903		0.81295984		3.57774798		0.00000000		-0.00090156		 0.00000003
Mg		4.40396970		3.49753951		1.37660340		-0.00000001		 0.00089930		-0.00000000
Mg		4.01091096		5.12346010		3.76176780		 0.00000001		-0.00089930		0.00000000
Mg		-0.19653029		2.36387744		1.19258266		-0.00000000		-0.00033631		-0.00000000
Mg		-0.58958903		6.25712217		3.57774798		0.00000000		 0.00033631		0.00000000
Mg		4.40396970		6.67437771		1.37660340		-0.00000001		-0.00033428		-0.00000001
Mg		4.01091096		1.94662190		3.76176780		 0.00000001		 0.00033428		 0.00000001
O		1.00865125		0.78795915		0.70779303		-0.00051422		-0.00072211		 0.00061543
O		7.40622941		7.83304046		4.43057817		 0.00051422		 0.00072211		-0.00061543
O		7.79928999		0.78795915		2.04541192		 0.00051430		-0.00072213		-0.00061542
O		0.61559067		7.83304046		3.09295743		-0.00051430		 0.00072213		 0.00061542
O		5.60915031		5.09845941		0.89181284		-0.00054323		-0.00072352		 0.00060905
O		2.80572942		3.52254112		4.24655743		 0.00054323		 0.00072352		-0.00060905
O		3.19878908		5.09845941		1.86139211		 0.00054315		-0.00072353		-0.00060906
O		5.21609157		3.52254112		3.27697817		-0.00054315		 0.00072353		 0.00060906
O		3.20787405		2.04835031		1.89056695		-0.00017612		 0.00020336		-0.00036133
O		5.20700661		6.57265114		3.24780425		 0.00017612		-0.00020336		 0.00036133
O		5.60006535		2.04835031		0.86263893		 0.00017618		 0.00020324		 0.00036143
O		2.81481531		6.57265114		4.27573227		-0.00017618		-0.00020324		-0.00036143
O		7.80837403		6.35884966		2.07458676		-0.00019481		 0.00017210		-0.00037910
O		0.60650662		2.26214995		3.06378351		 0.00019481		-0.00017210		 0.00037910
O		0.99956628		6.35884966		0.67861911		 0.00019469		 0.00017236		 0.00037896
O		7.41531438		2.26214995		4.45975209		-0.00019469		-0.00017236		-0.00037896
O		2.56545759		0.52846671		4.49624296		-0.00035760		 0.00039349		-0.00027924
O		5.84942306		8.09253290		0.64212823		 0.00035760		-0.00039349		 0.00027924
O		5.45636340		0.52846671		3.02729263		 0.00035755		 0.00039354		 0.00027930
O		2.95851817		8.09253290		2.11107764		-0.00035755		-0.00039354		-0.00027930
O		7.16595758		4.83896698		4.68026278		-0.00036477		 0.00038985		-0.00028035
O		1.24892308		3.78203263		0.45810842		 0.00036477		-0.00038985		 0.00028035
O		0.85586342		4.83896698		2.84327282		 0.00036478		 0.00038981		 0.00028036
O		7.55901724		3.78203263		2.29509746		-0.00036478		-0.00038981		-0.00028036
