# total energy = -24709.534455 eV

CRYSTAL
PRIMVEC
		9.20100148		0.00000000		1.10411795
		0.00000000		8.62099783		0.00000000
		-0.40136349		0.00000000		4.69205417
PRIMECORD
   40 1
Si		2.66449068		0.78882183		1.32087240		 0.00009048		-0.00031978		 0.00069857
Si		6.13514824		7.83217879		4.47529880		-0.00009048		 0.00031978		-0.00069857
Si		6.33582813		0.78882183		2.12927264		-0.00009127		-0.00031895		-0.00069948
Si		2.46381079		7.83217879		3.66689763		 0.00009127		 0.00031895		 0.00069948
Si		7.26499142		5.09932167		1.87293230		-0.00003047		-0.00039809		 0.00063020
Si		1.53464658		3.52167894		3.92323889		 0.00003047		 0.00039809		-0.00063020
Si		1.73532832		5.09932167		1.57721273		 0.00003032		-0.00039783		-0.00063047
Si		7.06431060		3.52167894		4.21895753		-0.00003032		 0.00039783		 0.00063047
Mg		-0.10034041		7.80804008		1.17301262		0.00000000		 0.00089908		-0.00000003
Mg		-0.30102123		0.81295961		3.51903785		-0.00000000		-0.00089908		 0.00000003
Mg		4.50016033		3.49754024		1.72507345		-0.00000002		 0.00091076		-0.00000000
Mg		4.29947859		5.12346038		4.07109775		 0.00000002		-0.00091076		0.00000000
Mg		-0.10034041		2.36387813		1.17301262		 0.00000001		-0.00049714		-0.00000002
Mg		-0.30102123		6.25712156		3.51903785		-0.00000001		 0.00049714		 0.00000002
Mg		4.50016033		6.67437797		1.72507345		-0.00000004		-0.00050908		-0.00000002
Mg		4.29947859		1.94662172		4.07109775		 0.00000004		 0.00050908		 0.00000002
O		1.06213191		0.78795907		0.78634568		 0.00039487		-0.00087243		-0.00018243
O		7.73750608		7.83304062		5.00982459		-0.00039487		 0.00087243		 0.00018243
O		7.93818690		0.78795907		2.66380028		-0.00039455		-0.00087254		 0.00018271
O		0.86145202		7.83304062		3.13237091		 0.00039455		 0.00087254		-0.00018271
O		5.66263265		5.09845984		1.33840558		 0.00047080		-0.00086718		-0.00016692
O		3.13700627		3.52254078		4.45776469		-0.00047080		 0.00086718		 0.00016692
O		3.33768709		5.09845984		2.11174038		-0.00047076		-0.00086727		 0.00016708
O		5.46195183		3.52254078		3.68443081		 0.00047076		 0.00086727		-0.00016708
O		3.34907995		2.04835032		2.14154772		-0.00084427		-0.00040071		-0.00034540
O		5.45055804		6.57265122		3.65462255		 0.00084427		 0.00040071		 0.00034540
O		5.65123886		2.04835032		1.30859732		 0.00084474		-0.00040151		 0.00034590
O		3.14840006		6.57265122		4.48757295		-0.00084474		 0.00040151		-0.00034590
O		7.94958069		6.35885017		2.69360762		-0.00078874		-0.00031622		-0.00030461
O		0.85005823		2.26215045		3.10256265		 0.00078874		 0.00031622		 0.00030461
O		1.05073905		6.35885017		0.75653741		 0.00078882		-0.00031642		 0.00030480
O		7.74889987		2.26215045		5.03963378		-0.00078882		 0.00031642		-0.00030480
O		2.91751064		0.52846702		4.68739657		-0.00010512		 0.00051423		-0.00040858
O		5.88212735		8.09253266		1.10877277		 0.00010512		-0.00051423		 0.00040858
O		5.68144653		0.52846702		3.45479893		 0.00010504		 0.00051419		 0.00040869
O		3.11819239		8.09253266		2.34137227		-0.00010504		-0.00051419		-0.00040869
O		7.51801138		4.83896686		5.23945740		-0.00008601		 0.00052821		-0.00039851
O		1.28162661		3.78203282		0.55671287		 0.00008601		-0.00052821		 0.00039851
O		1.08094672		4.83896686		2.90273903		 0.00008594		 0.00052820		 0.00039852
O		7.71869220		3.78203282		2.89343217		-0.00008594		-0.00052820		-0.00039852
