# total energy = -24708.261948 eV

CRYSTAL
PRIMVEC
		9.20100325		0.00000000		-1.47216462
		0.00000000		8.62100257		0.00000000
		-1.74801553		0.00000000		4.96603390
PRIMECORD
   40 1
Si		2.38007790		0.78882235		0.60894434		 0.00057284		-0.00023682		 0.00020921
Si		5.07290889		7.83217929		2.88492588		-0.00057284		 0.00023682		-0.00020921
Si		5.94691479		0.78882235		0.40191079		-0.00032044		-0.00042579		-0.00016008
Si		1.50607199		7.83217929		3.09195849		 0.00032044		 0.00042579		 0.00016008
Si		6.98057859		5.09932177		-0.12713611		 0.00017917		 0.00025167		 0.00008700
Si		0.47240913		3.52167894		3.62100632		-0.00017917		-0.00025167		-0.00008700
Si		1.34641503		5.09932177		1.13799124		 0.00006983		 0.00006307		-0.00003858
Si		6.10657175		3.52167894		2.35587898		-0.00006983		-0.00006307		 0.00003858
Mg		-0.43700342		7.80804001		1.24150801		-0.00000144		 0.00006283		 0.00000100
Mg		-1.31101025		0.81295977		3.72452310		 0.00000144		-0.00006283		-0.00000100
Mg		4.16349728		3.49753965		0.50542756		-0.00000138		-0.00002885		 0.00000105
Mg		3.28948951		5.12346013		2.98844265		 0.00000138		 0.00002885		-0.00000105
Mg		-0.43700342		2.36387757		1.24150801		 0.00000557		 0.00022164		 0.00001705
Mg		-1.31101025		6.25712221		3.72452310		-0.00000557		-0.00022164		-0.00001705
Mg		4.16349728		6.67437793		0.50542756		 0.00000571		 0.00035024		 0.00001707
Mg		3.28948951		1.94662185		2.98844265		-0.00000571		-0.00035024		-0.00001707
O		0.87494795		0.78795857		0.51141067		-0.00039041		 0.00012243		-0.00003603
O		6.57803883		7.83304121		2.98245861		 0.00039041		-0.00012243		 0.00003603
O		7.45204567		0.78795857		0.49944353		 0.00020895		 0.00013084		-0.00003349
O		0.00094112		7.83304121		2.99442576		-0.00020895		-0.00013084		 0.00003349
O		5.47544772		5.09845986		-0.22466885		 0.00006180		 0.00010741		 0.00011285
O		1.97753907		3.52254085		3.71853906		-0.00006180		-0.00010741		-0.00011285
O		2.85154590		5.09845986		1.23552397		-0.00024049		 0.00011578		-0.00018172
O		4.60144088		3.52254085		2.25834624		 0.00024049		-0.00011578		 0.00018172
O		2.85485940		2.04834956		1.26311186		-0.00002692		 0.00010625		 0.00044058
O		4.59812832		6.57265115		2.23075835		 0.00002692		-0.00010625		-0.00044058
O		5.47213423		2.04834956		-0.25225673		-0.00006601		 0.00028022		-0.00042559
O		1.98085256		6.57265115		3.74612694		 0.00006601		-0.00028022		 0.00042559
O		7.45535916		6.35884992		0.52703234		-0.00015951		-0.00026058		 0.00044737
O		-0.00237237		2.26214986		2.96683787		 0.00015951		 0.00026058		-0.00044737
O		0.87163353		6.35884992		0.48382278		 0.00006732		-0.00008738		-0.00043234
O		6.58135325		2.26214986		3.01004650		-0.00006732		 0.00008738		 0.00043234
O		1.68532477		0.52846732		4.01835687		 0.00020434		-0.00042002		-0.00020461
O		5.76766202		8.09253246		-0.52448573		-0.00020434		 0.00042002		 0.00020461
O		4.89365612		0.52846732		1.95852936		-0.00019797		-0.00039943		 0.00019240
O		2.55933160		8.09253246		1.53534085		 0.00019797		 0.00039943		-0.00019240
O		6.28582453		4.83896674		3.28227736		 0.00031145		-0.00046538		-0.00020435
O		1.16716226		3.78203304		0.21159379		-0.00031145		 0.00046538		 0.00020435
O		0.29315542		4.83896674		2.69460887		-0.00030488		-0.00044409		 0.00019159
O		7.15983230		3.78203304		0.79926134		 0.00030488		 0.00044409		-0.00019159
