# total energy = -24708.9723682 eV	

CRYSTAL	
PRIMVEC	
		9.20100148		-1.10411795		0.00000000	
		-1.03452271		8.62099783		0.00000000	
		-0.97849436		0.11742229		4.80946719	
PRIMCOORD
   40 1	
Si		2.44794103		0.48371014		1.01575979		 0.00028866		-0.00006691		 0.00046274	
Si		4.74004060		7.15059110		3.79371018		-0.00028866		 0.00006691		-0.00046274	
Si		6.07449288		0.04852299		1.38897473		-0.00036886		 0.00009708		 0.00013895	
Si		1.11348968		7.58577732		3.42049524		 0.00036886		-0.00009708		-0.00013895	
Si		6.53118227		4.24215008		1.01575979		 0.00017402		-0.00012154		 0.00040787	
Si		0.65680122		3.39215023		3.79371018		-0.00017402		 0.00012154		-0.00040787	
Si		0.95673264		4.91108274		1.38897473		-0.00024067		 0.00002574		 0.00019371	
Si		6.23124992		2.72321665		3.42049524		 0.00024067		-0.00002574		-0.00019371	
Mg		-1.18158923		7.83739519		1.20236772		 0.00060272		-0.00011313		-0.00013615	
Mg		-0.83142876		0.90102493		3.60710317		-0.00060272		 0.00011313		 0.00013615	
Mg		3.93617101		2.97483544		1.20236772		 0.00061099		-0.00010383		-0.00013997	
Mg		3.25181155		4.65946487		3.60710317		-0.00061099		 0.00010383		 0.00013997	
Mg		-0.52829002		2.39323324		1.20236772		-0.00020402		-0.00009079		-0.00017875	
Mg		-1.48472797		6.34518689		3.60710317		 0.00020402		 0.00009079		 0.00017875	
Mg		3.55495029		6.15167317		1.20236772		-0.00021190		-0.00010430		-0.00017951	
Mg		3.63303227		1.48262714		3.60710317		 0.00021190		 0.00010430		 0.00017951	
O		0.88735517		0.67012996		0.66851564		-0.00061788		 0.00025737		 0.00032303	
O		6.30062739		6.96417036		4.14095433		 0.00061788		-0.00025737		-0.00032303	
O		7.63528632		-0.13962141		1.73621888		-0.00030296		 0.00036225		 0.00033900	
O		-0.44730284		7.77392080		3.07325202		 0.00030296		-0.00036225		-0.00033900	
O		4.97059455		4.42857082		0.66851564		-0.00056563		 0.00025225		 0.00034056	
O		2.21738708		3.20573042		4.14095433		 0.00056563		-0.00025225		-0.00034056	
O		2.51752609		4.72293926		1.73621888		-0.00036759		 0.00038045		 0.00031938	
O		4.67045740		2.91136105		3.07325202		 0.00036759		-0.00038045		-0.00031938	
O		2.89146942		1.67187710		1.76507635		-0.00035057		 0.00026663		-0.00043875	
O		4.29651314		5.96242322		3.04439455		 0.00035057		-0.00026663		 0.00043875	
O		5.32867832		1.37941210		0.63966003		-0.00039331		 0.00011832		-0.00005552	
O		1.85930424		6.25488821		4.16981087		 0.00039331		-0.00011832		 0.00005552	
O		6.97470880		5.43031704		1.76507635		-0.00031992		 0.00033536		-0.00040271	
O		0.21327283		2.20398328		3.04439455		 0.00031992		-0.00033536		 0.00040271	
O		0.21091808		6.24197185		0.63966003		-0.00043728		 0.00016916		-0.00008646	
O		6.97706355		1.39232754		4.16981087		 0.00043728		-0.00016916		 0.00008646	
O		2.32601498		0.24173645		4.40066600		 0.00013452		-0.00068010		 0.00054967	
O		4.86196666		7.39256479		0.40880490		-0.00013452		 0.00068010		-0.00054967	
O		5.28040554		-0.11279064		2.81354035		 0.00004820		 0.00040613		 0.00030888	
O		1.90757609		7.74709095		1.99592963		-0.00004820		-0.00040613		-0.00030888	
O		6.40925622		4.00017454		4.40066600		 0.00015478		-0.00067507		 0.00054160	
O		0.77872727		3.63412392		0.40880490		-0.00015478		 0.00067507		-0.00054160	
O		0.16264623		4.74976911		2.81354035		 0.00003250		 0.00041637		 0.00029594	
O		7.02533726		2.88453121		1.99592963		-0.00003250		-0.00041637		-0.00029594	
