# total energy = -24714.881597 eV	

CRYSTAL	
PRIMVEC	
		9.20099997		0.36803963		0.00000000	
		0.34484378		8.62100237		0.00000000	
		-0.97849848		-0.03913552		4.80946985	
PRIMCOORD
   40 1	
Si		2.57415305		0.89052552		1.01576010		 0.00055420		 0.00004888		 0.00012517	
Si		5.99318946		8.05937452		3.79370975		-0.00055420		-0.00004888		-0.00012517	
Si		6.20070348		1.03558753		1.38897483		-0.00048476		-0.00036092		-0.00009007	
Si		2.36663811		7.91431250		3.42049502		 0.00048476		 0.00036092		 0.00009007	
Si		7.34707308		5.38504560		1.01576010		 0.00054996		 0.00004648		 0.00012331	
Si		1.22026851		3.56485444		3.79370975		-0.00054996		-0.00004648		-0.00012331	
Si		1.77262354		5.16206798		1.38897483		-0.00048055		-0.00036347		-0.00008777	
Si		6.79471805		3.78783298		3.42049502		 0.00048055		 0.00036347		 0.00008777	
Mg		0.06769708		7.79825497		1.20236838		 0.00011845		 0.00028417		 0.00009667	
Mg		-0.70135455		0.78360451		3.60710239		-0.00011845		-0.00028417		-0.00009667	
Mg		4.49577702		3.67177452		1.20236838		 0.00011838		 0.00028442		 0.00009672	
Mg		4.07156457		5.27812460		3.60710239		-0.00011838		-0.00028442		-0.00009672	
Mg		-0.15006860		2.35409264		1.20236838		-0.00039755		-0.00000951		-0.00013943	
Mg		-0.48358794		6.22776685		3.60710239		 0.00039755		 0.00000951		 0.00013943	
Mg		4.62285051		6.84861272		1.20236838		-0.00039752		-0.00000985		-0.00013942	
Mg		3.94449200		2.10128732		3.60710239		 0.00039752		 0.00000985		 0.00013942	
O		1.01342854		0.82723555		0.66851570		 0.00000778		-0.00034692		 0.00033271	
O		7.55391397		8.12266356		4.14095415		-0.00000778		 0.00034692		-0.00033271	
O		7.76135892		1.09715277		1.73621922		 0.00009601		 0.00005914		-0.00085775	
O		0.80598267		7.85274635		3.07325155		-0.00009601		-0.00005914		 0.00085775	
O		5.78634858		5.32175563		0.66851570		 0.00001061		-0.00034668		 0.00033335	
O		2.78099301		3.62814348		4.14095415		-0.00001061		 0.00034668		-0.00033335	
O		3.33327898		5.22363322		1.73621922		 0.00009324		 0.00005921		-0.00085839	
O		5.23406260		3.72626682		3.07325155		-0.00009324		-0.00005921		 0.00085839	
O		3.21920493		2.17384089		1.76507637		-0.00018088		 0.00040725		 0.00027498	
O		5.34813666		6.77606007		3.04439532		 0.00018088		-0.00040725		-0.00027498	
O		5.65641405		2.27132884		0.63966039		-0.00041649		 0.00001606		-0.00049369	
O		2.91092754		6.67857211		4.16981038		 0.00041649		-0.00001606		 0.00049369	
O		7.99212497		6.66836004		1.76507637		-0.00017936		 0.00040953		 0.00027627	
O		0.57521662		2.28153999		3.04439532		 0.00017936		-0.00040953		-0.00027627	
O		1.22833411		6.39780837		0.63966039		-0.00041811		 0.00001888		-0.00049527	
O		7.33900840		2.55209074		4.16981038		 0.00041811		-0.00001888		 0.00049527	
O		2.41057026		0.62404486		4.40066574		 0.00012515		 0.00035662		-0.00015357	
O		6.15677133		8.32585518		0.40880503		-0.00012515		-0.00035662		 0.00015357	
O		5.36496033		0.74222031		2.81353995		-0.00004195		 0.00040800		 0.00001816	
O		3.20238218		8.20767972		1.99592989		 0.00004195		-0.00040800		-0.00001816	
O		7.18348937		5.11856494		4.40066574		 0.00012578		 0.00035685		-0.00015342	
O		1.38385222		3.83133602		0.40880503		-0.00012578		-0.00035685		 0.00015342	
O		0.93688131		4.86869984		2.81353995		-0.00004252		 0.00040824		 0.00001802	
O		7.63046212		4.08120019		1.99592989		 0.00004252		-0.00040824		-0.00001802	
