# total energy = -12345.3620617 eV

CRYSTAL
PRIMVEC
		4.44489886		0.00000000		0.35559102
		0.00000000		4.66479943		0.00000000
		0.51635053		0.00000000		6.45440168
PRIMECORD
   20 1
O		0.60424788		2.21811206		1.65161314		 0.00005331		 0.00027414		-0.00058283
O		4.35700418		2.44668826		5.15837911		-0.00005331		-0.00027414		 0.00058283
O		3.08487391		0.11428810		5.05660904		 0.00005331		-0.00027414		-0.00058283
O		1.87637815		4.55051311		1.75338321		-0.00005331		 0.00027414		 0.00058283
O		1.12721617		0.90450502		3.69497615		 0.00006249		 0.00018692		 0.00015592
O		3.83403589		3.76029529		3.11501610		-0.00006249		-0.00018692		-0.00015592
O		3.28553525		1.42789514		3.07113587		 0.00020512		 0.00044825		 0.00049880
O		1.67571726		3.23690518		3.73885594		-0.00020512		-0.00044825		-0.00049880
O		3.63999098		3.76029529		0.68945194		-0.00020512		 0.00044825		-0.00049880
O		1.32126108		0.90450502		6.12054031		 0.00020512		-0.00044825		 0.00049880
O		1.86976218		3.23690518		6.16442009		-0.00006249		 0.00018692		-0.00015592
O		3.09148988		1.42789514		0.64557216		 0.00006249		-0.00018692		 0.00015592
Mg		2.43243519		2.71351418		1.79786809		 0.00028441		-0.00007120		-0.00016306
Mg		2.52881687		1.95128614		5.01212416		-0.00028441		 0.00007120		 0.00016306
Mg		0.46816102		4.28368630		4.84727209		 0.00028441		 0.00007120		-0.00016306
Mg		4.49309104		0.38111402		1.96272017		-0.00028441		-0.00007120		 0.00016306
Si		2.48062603		0.00000000		3.40499590		0.00000000		0.00000000		0.00000000
Si		0.25817616		2.33240016		3.22719995		0.00000000		0.00000000		0.00000000
Si		2.22244987		0.00000000		0.17779595		0.00000000		0.00000000		0.00000000
Si		0.00000000		2.33240016		0.00000000		0.00000000		0.00000000		0.00000000
