# total energy = -12347.6284783 eV

CRYSTAL
PRIMVEC
		4.44490026		0.00000000		0.17779583
		0.00000000		4.66480072		0.00000000
		0.25817496		0.00000000		6.45440065
PRIMECORD
   20 1
O		0.53970386		2.21811200		1.63260596		 0.00064672		 0.00027164		-0.00051929
O		4.16337225		2.44668783		4.99959007		-0.00064672		-0.00027164		 0.00051929
O		2.89124191		0.11428792		4.94870420		 0.00064672		-0.00027164		-0.00051929
O		1.81183420		4.55051325		1.68349183		-0.00064672		 0.00027164		 0.00051929
O		0.98209510		0.90450516		3.66149716		 0.00027076		 0.00050796		-0.00012012
O		3.72098101		3.76029511		2.97069887		-0.00027076		-0.00050796		 0.00012012
O		3.17247988		1.42789520		2.94875910		 0.00055946		 0.00011646		 0.00010974
O		1.53059623		3.23690507		3.68343694		-0.00055946		-0.00011646		-0.00010974
O		3.62395799		3.76029511		0.54513498		-0.00055946		 0.00011646		-0.00010974
O		1.07911812		0.90450516		6.08706106		 0.00055946		-0.00011646		 0.00010974
O		1.62761924		3.23690507		6.10900128		-0.00027076		 0.00050796		 0.00012012
O		3.07545687		1.42789520		0.52319520		 0.00027076		-0.00050796		-0.00012012
Mg		2.36789102		2.71351414		1.70573411		 0.00024033		-0.00022775		-0.00018057
Mg		2.33518509		1.95128613		4.92646193		-0.00024033		 0.00022775		 0.00018057
Mg		0.27452881		4.28368604		4.84403607		 0.00024033		 0.00022775		-0.00018057
Mg		4.42854730		0.38111423		1.78815997		-0.00024033		-0.00022775		 0.00018057
Si		2.35153805		0.00000000		3.31609824		0.00000000		0.00000000		0.00000000
Si		0.12908792		2.33239991		3.22719988		0.00000000		-0.00000000		0.00000000
Si		2.22245013		0.00000000		0.08889792		0.00000000		0.00000000		0.00000000
Si		0.00000000		2.33239991		0.00000000		0.00000000		-0.00000000		0.00000000
