# total energy = -12347.6284783 eV

CRYSTAL
PRIMVEC
		4.44490026		0.00000000		-0.17779583
		0.00000000		4.66480072		0.00000000
		-0.25817496		0.00000000		6.45440065
PRIMECORD
   20 1
O		0.41061593		2.21811200		1.59459392		 0.00064679		 0.00027161		 0.00051921
O		3.77610803		2.44668783		4.68201001		-0.00064679		-0.00027161		-0.00051921
O		2.50397814		0.11428792		4.73289588		 0.00064679		-0.00027161		 0.00051921
O		1.68274583		4.55051325		1.54370805		-0.00064679		 0.00027161		-0.00051921
O		0.69185391		0.90450516		3.59453902		 0.00055930		-0.00011663		-0.00010989
O		3.49487006		3.76029511		2.68206490		-0.00055930		 0.00011663		 0.00010989
O		2.94636894		1.42789520		2.70400512		 0.00027061		-0.00050785		 0.00012031
O		1.24035503		3.23690507		3.57259924		-0.00027061		 0.00050785		-0.00012031
O		3.59189308		3.76029511		0.25650100		-0.00027061		-0.00050785		-0.00012031
O		0.59483089		0.90450516		6.02010292		 0.00027061		 0.00050785		 0.00012031
O		1.14333201		3.23690507		5.99816314		-0.00055930		-0.00011663		 0.00010989
O		3.04339196		1.42789520		0.27844078		 0.00055930		 0.00011663		-0.00010989
Mg		2.23880309		2.71351414		1.52146622		 0.00024034		-0.00022776		 0.00018063
Mg		1.94792087		1.95128613		4.75513815		-0.00024034		 0.00022776		-0.00018063
Mg		-0.11273496		4.28368604		4.83756401		 0.00024034		 0.00022776		 0.00018063
Mg		4.29945893		0.38111423		1.43903991		-0.00024034		-0.00022776		-0.00018063
Si		2.09336221		0.00000000		3.13830196		0.00000000		0.00000000		0.00000000
Si		-0.12908792		2.33239991		3.22719988		0.00000000		0.00000000		0.00000000
Si		2.22245013		0.00000000		-0.08889792		0.00000000		0.00000000		0.00000000
Si		0.00000000		2.33239991		0.00000000		0.00000000		0.00000000		0.00000000
