# total energy = -18276.8696235 eV	

CRYSTAL	
PRIMVEC	
		4.80240004		0.00000000		0.00000000	
		-2.40120002		4.62111424		0.00000000	
		0.00000000		0.00000000		14.61400106	
PRIMCOORD
   28 1	
Mg		1.59439681		0.00000000		3.19754312		-0.00161333		0.00000000		-0.00110871	
Mg		-0.79719793		1.53420881		3.19754312		 0.00035473		-0.00086622		 0.00174675	
Mg		1.60400209		3.08690206		3.19754312		 0.00035473		 0.00086622		 0.00174675	
Mg		3.20800323		0.00000000		10.50454413		 0.00161333		0.00000000		-0.00110871	
Mg		-1.60400209		3.08690206		10.50454413		-0.00035473		 0.00086622		 0.00174675	
Mg		0.79719793		1.53420881		10.50454413		-0.00035473		-0.00086622		 0.00174675	
Si		0.00000000		3.08074107		0.42672878		 0.00030746		 0.00021846		 0.00036978	
Si		2.40120002		1.54036981		7.73372883		-0.00030746		-0.00021846		 0.00036978	
Si		0.00000000		3.08074107		7.73372883		-0.00030746		 0.00021846		 0.00036978	
Si		2.40120002		1.54037077		0.42672878		 0.00030746		-0.00021846		 0.00036978	
O		0.00000000		3.08074107		2.05472799		-0.00052923		 0.00147175		-0.00059222	
O		2.40120002		1.54036981		9.36172804		 0.00052923		-0.00147175		-0.00059222	
O		0.00000000		3.08074107		9.36172804		 0.00052923		 0.00147175		-0.00059222	
O		2.40120002		1.54037077		2.05472799		-0.00052923		-0.00147175		-0.00059222	
O		2.37238610		0.00000000		14.48247389		 0.00013924		0.00000000		 0.00012429	
O		-1.18619281		2.28282902		14.48247389		-0.00014883		-0.00063620		-0.00082141	
O		1.21500721		2.33828282		14.48247389		-0.00014883		 0.00063620		-0.00082141	
O		2.43001490		0.00000000		7.17547384		-0.00013924		-0.00000000		 0.00012429	
O		-1.21500721		2.33828282		7.17547384		 0.00014883		 0.00063620		-0.00082141	
O		1.18619281		2.28282902		7.17547384		 0.00014883		-0.00063620		-0.00082141	
O		3.20160019		0.00000000		4.17814326		 0.00152092		-0.00000000		-0.00013135	
O		-1.60079985		3.08074107		4.17814326		 0.00005655		-0.00035135		-0.00084732	
O		0.80040017		1.54036981		4.17814326		 0.00005655		 0.00035135		-0.00084732	
O		1.60079985		0.00000000		11.48514331		-0.00152092		-0.00000000		-0.00013135	
O		-0.80040017		1.54036981		11.48514331		-0.00005655		 0.00035135		-0.00084732	
O		1.60079985		3.08074107		11.48514331		-0.00005655		-0.00035135		-0.00084732	
O		0.00000000		0.00000000		2.10441602		 0.00012666		0.00000000		 0.00140461	
O		0.00000000		0.00000000		9.41141607		-0.00012666		-0.00000000		 0.00140461	
