# total energy = -18279.4858211 eV	

CRYSTAL	
PRIMVEC	
		5.73619988		0.00000000		0.00000000	
		-2.86809994		4.62111131		0.00000000	
		0.00000000		0.00000000		14.61400172	
PRIMCOORD
   28 1	
Mg		1.90441779		0.00000000		3.19754309		-0.00073021		0.00000000		-0.00016666	
Mg		-0.95220918		1.53420918		3.19754309		 0.00021829		 0.00014257		-0.00022869	
Mg		1.91589076		3.08690212		3.19754309		 0.00021829		-0.00014257		-0.00022869	
Mg		3.83178095		0.00000000		10.50454395		 0.00073021		-0.00000000		-0.00016666	
Mg		-1.91589076		3.08690212		10.50454395		-0.00021829		-0.00014257		-0.00022869	
Mg		0.95220918		1.53420918		10.50454395		-0.00021829		 0.00014257		-0.00022869	
Si		0.00000000		3.08074087		0.42672910		 0.00012599		 0.00040625		 0.00000584	
Si		2.86809994		1.54036986		7.73372882		-0.00012599		-0.00040625		 0.00000584	
Si		0.00000000		3.08074087		7.73372882		-0.00012599		 0.00040625		 0.00000584	
Si		2.86809994		1.54037101		0.42672910		 0.00012599		-0.00040625		 0.00000584	
O		0.00000000		3.08074087		2.05472802		-0.00052751		-0.00006214		-0.00008399	
O		2.86809994		1.54036986		9.36172774		 0.00052751		 0.00006214		-0.00008399	
O		0.00000000		3.08074087		9.36172774		 0.00052751		-0.00006214		-0.00008399	
O		2.86809994		1.54037101		2.05472802		-0.00052751		 0.00006214		-0.00008399	
O		2.83368274		0.00000000		14.48247352		 0.00030630		0.00000000		 0.00008899	
O		-1.41684080		2.28282916		14.48247352		 0.00005197		 0.00014315		-0.00003939	
O		1.45125914		2.33828272		14.48247352		 0.00005197		-0.00014315		-0.00003939	
O		2.90251714		0.00000000		7.17547381		-0.00030630		-0.00000000		 0.00008899	
O		-1.45125914		2.33828272		7.17547381		-0.00005197		-0.00014315		-0.00003939	
O		1.41684080		2.28282916		7.17547381		-0.00005197		 0.00014315		-0.00003939	
O		3.82413287		0.00000000		4.17814302		-0.00054493		-0.00000000		 0.00036553	
O		-1.91206701		3.08074087		4.17814302		 0.00031597		 0.00017659		 0.00019023	
O		0.95603293		1.54036986		4.17814302		 0.00031597		-0.00017659		 0.00019023	
O		1.91206701		0.00000000		11.48514274		 0.00054493		0.00000000		 0.00036553	
O		-0.95603293		1.54036986		11.48514274		-0.00031597		-0.00017659		 0.00019023	
O		1.91206701		3.08074087		11.48514274		-0.00031597		 0.00017659		 0.00019023	
O		0.00000000		0.00000000		2.10441613		-0.00009470		-0.00000000		 0.00002413	
O		0.00000000		0.00000000		9.41141585		 0.00009470		0.00000000		 0.00002413	
