# total energy = -24710.2691193 eV	

CRYSTAL	
PRIMVEC	
		9.61326956		0.00000000		0.00000000	
		0.00000000		8.82246278		-1.05869015	
		-1.62743040		-0.58943762		4.91196737	
PRIMCOORD
   40 1	
Mg		2.03778627		5.63568603		0.38249565		 0.00011299		-0.00000095		 0.00018466	
Mg		5.94805577		2.59733816		3.47077772		-0.00011299		 0.00000095		-0.00018466	
Mg		6.76177001		1.18755699		1.21933269		-0.00019579		 0.00005259		-0.00020589	
Mg		1.22407203		7.04546624		2.63394069		 0.00019579		-0.00005259		 0.00020589	
Mg		2.11556628		-0.02044935		1.04719268		 0.00063513		 0.00042954		-0.00001695	
Mg		5.87027576		8.25347258		2.80608166		-0.00063513		-0.00042954		 0.00001695	
Mg		6.68399000		4.35046399		0.85382368		-0.00068349		-0.00038979		 0.00050868	
Mg		1.30185204		3.88256020		2.99945065		 0.00068349		 0.00038979		-0.00050868	
Si		-0.04067759		2.82051406		1.10374274		 0.00004203		 0.00003925		-0.00009206	
Si		8.02651963		5.41251013		2.74953160		-0.00004203		-0.00003925		 0.00009206	
Si		8.84023387		7.28821187		0.10382908		 0.00024612		 0.00009843		 0.00003437	
Si		-0.85439087		0.94481136		3.74944622		-0.00024612		-0.00009843		-0.00003437	
Si		4.94609063		7.25724369		0.22421894		 0.00017221		 0.00022905		-0.00024262	
Si		3.03975044		0.97577858		3.62905540		-0.00017221		-0.00022905		 0.00024262	
Si		3.85346468		2.81795693		0.98737603		-0.00063480		 0.00028253		-0.00011483	
Si		4.13237736		5.41506630		2.86589927		 0.00063480		-0.00028253		 0.00011483	
O		8.04909831		2.89682227		0.56205038		-0.00011077		-0.00002562		-0.00015212	
O		-0.06325724		5.33620192		3.29122492		 0.00011077		 0.00002562		 0.00015212	
O		0.75045700		7.23484381		0.64276916		 0.00037347		 0.00000971		-0.00029503	
O		7.23538503		0.99818039		3.21050614		-0.00037347		-0.00000971		 0.00029503	
O		0.68054066		4.22743144		1.04577664		 0.00025731		 0.00010321		-0.00054564	
O		7.30530042		4.00559179		2.80749673		-0.00025731		-0.00010321		 0.00054564	
O		8.11901466		-0.10033369		0.87959013		-0.00020244		 0.00026511		-0.00061259	
O		-0.13317262		8.33335693		2.97368517		 0.00020244		-0.00026511		 0.00061259	
O		0.00731378		2.11825799		2.70961442		 0.00008429		 0.00012701		 0.00016355	
O		7.97852730		6.11476428		1.14365992		-0.00008429		-0.00012701		-0.00016355	
O		7.16481402		6.36703954		3.53400612		 0.00071172		 0.00026820		 0.00000317	
O		0.82102802		1.86598369		0.31926918		-0.00071172		-0.00026820		-0.00000317	
O		3.39361874		7.31683154		-0.25785673		-0.00005016		-0.00027877		-0.00000083	
O		4.59222234		0.91619073		4.11113203		 0.00005016		 0.00027877		 0.00000083	
O		5.40593658		2.76189811		1.46902872		-0.00045325		-0.00093347		-0.00007603	
O		2.57990450		5.47112608		2.38424562		 0.00045325		 0.00093347		 0.00007603	
O		5.47592118		8.37930066		0.92420051		-0.00033305		 0.00013275		 0.00007141	
O		2.50992086		-0.14627743		2.92907383		 0.00033305		-0.00013275		-0.00007141	
O		3.32363510		4.14325093		-0.00628900		 0.00000214		 0.00000888		-0.00086583	
O		4.66220790		4.08977135		3.85956238		-0.00000214		-0.00000888		 0.00086583	
O		5.07876145		5.86736486		1.46624279		 0.00016331		 0.00047719		 0.00037092	
O		2.90707963		2.36565837		2.38703155		-0.00016331		-0.00047719		-0.00037092	
O		3.72079387		1.68990608		0.04750301		-0.00013064		 0.00025597		 0.00023985	
O		4.26504817		6.54311811		3.80577037		 0.00013064		-0.00025597		-0.00023985	
