# total energy = -34531.3635863 eV	

CRYSTAL	
PRIMVEC	
		9.34400001		0.00000000		-0.37375963	
		0.00000000		5.30799828		0.00000000	
		-1.01175444		0.00000000		13.30053293	
PRIMCOORD
   56 1	
Si		1.06412175		2.54147007		4.77229548		-0.00070169		 0.00039959		-0.00035864	
Si		7.26812102		2.76653008		8.15447503		 0.00070169		-0.00039959		 0.00035864	
Si		7.77399824		2.54147007		1.50420949		 0.00070467		 0.00013687		-0.00036075	
Si		0.55824359		2.76653008		11.42256101		-0.00070467		-0.00013687		 0.00036075	
Si		5.73612175		5.19547015		4.58541566		-0.00070689		 0.00039796		-0.00035629	
Si		2.59612195		0.11253000		8.34135484		 0.00070689		-0.00039796		 0.00035629	
Si		3.10200010		5.19547015		1.69109024		 0.00070092		 0.00013893		-0.00035730	
Si		5.23024360		0.11253000		11.23568026		-0.00070092		-0.00013893		 0.00035730	
Mg		4.16612185		2.65400008		6.46338478		0.00000000		0.00000000		0.00000000	
Mg		4.67200001		2.65400008		-0.18687981		0.00000000		0.00000000		0.00000000	
Mg		-0.50587816		0.00000000		6.65026460		0.00000000		0.00000000		0.00000000	
Mg		0.00000000		0.00000000		0.00000000		0.00000000		0.00000000		0.00000000	
O		0.26323178		1.13431951		4.95271062		 0.00014224		 0.00007249		 0.00092934	
O		8.06901099		4.17367971		7.97405895		-0.00014224		-0.00007249		-0.00092934	
O		8.57488821		1.13431951		1.32379435		-0.00019328		 0.00017110		-0.00082978	
O		-0.24264638		4.17367971		11.60297615		 0.00019328		-0.00017110		 0.00082978	
O		4.93523178		3.78831958		4.76583080		 0.00014369		 0.00007425		 0.00092876	
O		3.39701098		1.51967963		8.16093876		-0.00014369		-0.00007425		-0.00092876	
O		3.90288914		3.78831958		1.51067417		-0.00019204		 0.00016949		-0.00083030	
O		4.42935363		1.51967963		11.41609634		 0.00019204		-0.00016949		 0.00083030	
O		2.43724886		2.43743402		5.53140588		 0.00041273		 0.00045724		 0.00051425	
O		5.89499484		2.87056614		7.39536462		-0.00041273		-0.00045724		-0.00051425	
O		6.40087300		2.43743402		0.74510003		-0.00020816		 0.00048544		-0.00035017	
O		1.93136977		2.87056614		12.18167048		 0.00020816		-0.00048544		 0.00035017	
O		7.10924886		5.09143409		5.34452607		 0.00041536		 0.00045723		 0.00051517	
O		1.22299484		0.21656606		7.58224444		-0.00041536		-0.00045723		-0.00051517	
O		1.72887299		5.09143409		0.93197984		-0.00020668		 0.00048540		-0.00034992	
O		6.60336977		0.21656606		11.99479066		 0.00020668		-0.00048540		 0.00034992	
O		0.17935655		3.65933473		5.63895903		-0.00023420		 0.00046323		-0.00008098	
O		8.15288528		1.64866449		7.28781148		 0.00023420		-0.00046323		 0.00008098	
O		8.65876343		3.65933473		0.63754594		 0.00017222		 0.00039714		 0.00018973	
O		-0.32652067		1.64866449		12.28922456		-0.00017222		-0.00039714		-0.00018973	
O		4.85135656		1.00533466		5.45207921		-0.00023288		 0.00046211		-0.00008196	
O		3.48088621		4.30266456		7.47469129		 0.00023288		-0.00046211		 0.00008196	
O		3.98676530		1.00533466		0.82442576		 0.00017323		 0.00039800		 0.00018889	
O		4.34547840		4.30266456		12.10234475		-0.00017323		-0.00039800		-0.00018889	
O		1.32106653		3.11208099		3.29267100		-0.00010663		 0.00034313		 0.00069739	
O		7.01117717		2.19592010		9.63409950		 0.00010663		-0.00034313		-0.00069739	
O		7.51705439		3.11208099		2.98383490		 0.00003011		 0.00050234		-0.00019041	
O		0.81518837		2.19592010		9.94293560		-0.00003011		-0.00050234		 0.00019041	
O		5.99306560		0.45807998		3.10579119		-0.00010558		 0.00034380		 0.00069526	
O		2.33917717		4.84992017		9.82097931		 0.00010558		-0.00034380		-0.00069526	
O		2.84505532		0.45807998		3.17071472		 0.00003086		 0.00050133		-0.00019322	
O		5.48718744		4.84992017		9.75605579		-0.00003086		-0.00050133		 0.00019322	
Ca		1.54388779		2.54784030		1.12395901		-0.00053931		 0.00050561		-0.00082813	
Ca		6.78835498		2.76015985		11.80281149		 0.00053931		-0.00050561		 0.00082813	
Ca		7.29423407		2.54784030		5.15254596		 0.00053772		 0.00049626		 0.00072291	
Ca		1.03800870		2.76015985		7.77422454		-0.00053772		-0.00049626		-0.00072291	
Ca		6.21588780		5.20183944		0.93707920		-0.00053894		 0.00050573		-0.00082821	
Ca		2.11635591		0.10615978		11.98969131		 0.00053894		-0.00050573		 0.00082821	
Ca		2.62223406		5.20183944		5.33942577		 0.00053838		 0.00049623		 0.00072266	
Ca		5.71000870		0.10615978		7.58734473		-0.00053838		-0.00049623		-0.00072266	
Ca		-0.25293861		4.93166326		3.32513277		 0.00000110		-0.00007712		-0.00006461	
Ca		-0.75881677		0.37633689		9.97539736		-0.00000110		 0.00007712		 0.00006461	
Ca		4.41906046		2.27766318		3.13825295		 0.00000047		-0.00007727		-0.00006406	
Ca		3.91318230		3.03033697		9.78851755		-0.00000047		 0.00007727		 0.00006406	
