# total energy = -34529.3957505 eV	

CRYSTAL	
PRIMVEC	
		9.34399714		0.00000000		-0.74751790	
		0.00000000		5.30800042		0.00000000	
		-1.54301117		0.00000000		13.31974810	
PRIMCOORD
   56 1	
Si		0.87121901		2.54146992		4.72201464		-0.00017555		-0.00002090		 0.00013454	
Si		6.92977164		2.76652957		7.85021557		 0.00017555		 0.00002090		-0.00013454	
Si		7.70127536		2.54146992		1.19034058		 0.00032892		 0.00013877		 0.00014031	
Si		0.09971436		2.76652957		11.38188962		-0.00032892		-0.00013877		-0.00014031	
Si		5.54321851		5.19547013		4.34825475		 0.00027926		-0.00012446		 0.00020967	
Si		2.25777214		0.11253029		8.22397545		-0.00027926		 0.00012446		-0.00020967	
Si		3.02927679		5.19547013		1.56410140		-0.00012647		 0.00003179		 0.00006279	
Si		4.77171387		0.11253029		11.00812974		 0.00012647		-0.00003179		-0.00006279	
Mg		3.90049486		2.65400021		6.28611604		0.00000000		0.00000000		0.00000000	
Mg		4.67199951		2.65400021		-0.37375989		0.00000000		0.00000000		0.00000000	
Mg		-0.77150465		0.00000000		6.65987592		0.00000000		0.00000000		0.00000000	
Mg		0.00000000		0.00000000		0.00000000		0.00000000		0.00000000		0.00000000	
O		0.06438525		1.13431962		4.93422742		-0.00029098		-0.00023477		-0.00050467	
O		7.73660541		4.17367986		7.63800279		 0.00029098		 0.00023477		 0.00050467	
O		8.50811099		1.13431962		0.97812686		 0.00029842		-0.00025069		 0.00046242	
O		-0.70712034		4.17367986		11.59410334		-0.00029842		 0.00025069		-0.00046242	
O		4.73638475		3.78831984		4.56046753		-0.00036691		-0.00030409		-0.00049524	
O		3.06460590		1.51967965		8.01176267		 0.00036691		 0.00030409		 0.00049524	
O		3.83611055		3.78831984		1.35188675		 0.00037406		-0.00031984		 0.00045268	
O		3.96488010		1.51967965		11.22034345		-0.00037406		 0.00031984		-0.00045268	
O		2.21173152		2.43743421		5.42489518		-0.00039302		 0.00077851		 0.00002466	
O		5.58925913		2.87056621		7.14733596		 0.00039302		-0.00077851		-0.00002466	
O		6.36076284		2.43743421		0.48746097		 0.00019098		 0.00072211		-0.00013143	
O		1.44022687		2.87056621		12.08477111		-0.00019098		-0.00072211		 0.00013143	
O		6.88373197		5.09143349		5.05113530		-0.00074008		 0.00084800		-0.00011794	
O		0.91725869		0.21656600		7.52109584		 0.00074008		-0.00084800		 0.00011794	
O		1.68876427		5.09143349		0.86122086		 0.00054202		 0.00079460		 0.00001130	
O		6.11222638		0.21656600		11.71101028		-0.00054202		-0.00079460		-0.00001130	
O		-0.04684958		3.65933468		5.62273691		 0.00053965		-0.00006892		 0.00044375	
O		7.84784117		1.64866480		6.94949517		-0.00053965		 0.00006892		-0.00044375	
O		8.61934582		3.65933468		0.28961924		-0.00052961		-0.00005839		-0.00047488	
O		-0.81835423		1.64866480		12.28261189		 0.00052961		 0.00005839		 0.00047488	
O		4.62514993		1.00533541		5.24897702		 0.00045052		 0.00002003		 0.00050221	
O		3.17584073		4.30266502		7.32325505		-0.00045052		-0.00002003		-0.00050221	
O		3.94734631		1.00533541		0.66337913		-0.00044091		 0.00003048		-0.00053327	
O		3.85364528		4.30266502		11.90885201		 0.00044091		-0.00003048		 0.00053327	
O		1.18703161		3.11208072		3.23446574		-0.00005005		-0.00010702		 0.00012447	
O		6.61395904		2.19591971		9.33776352		 0.00005005		 0.00010702		-0.00012447	
O		7.38546369		3.11208072		2.67788854		 0.00007331		-0.00017869		-0.00030142	
O		0.41552696		2.19591971		9.89434166		-0.00007331		 0.00017869		 0.00030142	
O		5.85903112		0.45807957		2.86070679		-0.00009423		-0.00010050		 0.00010876	
O		1.94195954		4.84991992		9.71152341		 0.00009423		 0.00010050		-0.00010876	
O		2.71346419		0.45807957		3.05164936		 0.00011622		-0.00017119		-0.00028440	
O		5.08752647		4.84991992		9.52058178		-0.00011622		 0.00017119		 0.00028440	
Ca		1.49638282		2.54784039		1.06030274		-0.00043149		-0.00029846		-0.00023959	
Ca		6.30460784		2.76016003		11.51192652		 0.00043149		 0.00029846		 0.00023959	
Ca		7.07611155		2.54784039		4.85205153		 0.00042766		-0.00028770		 0.00027978	
Ca		0.72487910		2.76016003		7.72017867		-0.00042766		 0.00028770		-0.00027978	
Ca		6.16838326		5.20183967		0.68654286		-0.00037200		-0.00030201		-0.00023478	
Ca		1.63260833		0.10615982		11.88568641		 0.00037200		 0.00030201		 0.00023478	
Ca		2.40411204		5.20183967		5.22581142		 0.00036840		-0.00029074		 0.00027535	
Ca		5.39687861		0.10615982		7.34641878		-0.00036840		 0.00029074		-0.00027535	
Ca		-0.38575186		4.93166273		3.32993749		-0.00000251		 0.00021738		 0.00002172	
Ca		-1.15725650		0.37633676		9.98981248		 0.00000251		-0.00021738		-0.00002172	
Ca		4.28624765		2.27766252		2.95617761		-0.00000254		 0.00022828		 0.00002176	
Ca		3.51474300		3.03033697		9.61605259		 0.00000254		-0.00022828		-0.00002176	
