# total energy = -13384.617774 eV	

CRYSTAL	
PRIMVEC	
		3.05300125		0.00000000		0.48848156	
		-1.52649908		2.64397667		-0.24423923	
		3.22000035		0.00000000		20.12500064	
PRIMCOORD
   18 1	
O		1.00238602		0.00000000		6.26491337		 0.00006952		 0.00037284		 0.00048485	
O		2.21761403		0.00000000		13.86008758		-0.00006952		-0.00037284		-0.00048485	
O		2.90530415		0.88132504		8.86176527		-0.00014204		 0.00092890		 0.00080410	
O		1.84119621		1.76265008		11.50747553		 0.00014204		-0.00092890		-0.00080410	
O		1.75769604		0.88132504		1.68921506		 0.00006555		 0.00046462		-0.00016698	
O		2.98880401		1.76265008		18.68002574		-0.00006555		-0.00046462		 0.00016698	
O		0.60761416		1.76265008		3.79758819		-0.00005514		-0.00021740		 0.00026097	
O		4.13888620		0.88132504		16.57165262		 0.00005514		 0.00021740		-0.00026097	
H		3.06372805		0.88132504		9.85191536		-0.00020328		 0.00004831		-0.00077246	
H		1.68277200		1.76265008		10.51732544		 0.00020328		-0.00004831		 0.00077246	
H		1.59927214		0.88132504		0.69906497		-0.00005351		 0.00007202		 0.00046236	
H		3.14722822		1.76265008		19.67017583		 0.00005351		-0.00007202		-0.00046236	
Mg		1.20073814		1.76265008		7.50461323		 0.00004840		-0.00011378		-0.00014391	
Mg		3.54576222		0.88132504		12.86462758		-0.00004840		 0.00011378		 0.00014391	
Mg		0.40926203		0.00000000		2.55788802		-0.00014357		 0.00016367		 0.00068474	
Mg		2.81073801		0.00000000		17.56711355		 0.00014357		-0.00016367		-0.00068474	
Mg		2.33182195		0.88132504		5.27750233		 0.00005275		 0.00020143		 0.00022627	
Mg		2.41467809		1.76265008		15.09173754		-0.00005275		-0.00020143		-0.00022627	
