# total energy = -13384.5621427 eV	

CRYSTAL	
PRIMVEC	
		3.05300065		0.00000000		-0.36635934	
		-1.52649879		2.64397703		0.18318121	
		-2.41500129		0.00000000		20.12500151	
PRIMCOORD
   18 1	
O		-0.75179015		0.00000000		6.26491322		-0.00042924		-0.00067484		 0.00008828	
O		-1.66321021		0.00000000		13.86008767		 0.00042924		 0.00067484		-0.00008828	
O		0.49239716		0.88132506		8.43434536		-0.00071564		-0.00011429		 0.00020272	
O		-1.38089720		1.76265012		11.50747556		 0.00071564		 0.00011429		-0.00020272	
O		1.35310315		0.88132506		1.26179513		-0.00031597		 0.00014029		-0.00050373	
O		-2.24160319		1.76265012		18.68002609		 0.00031597		-0.00014029		 0.00050373	
O		-0.45571111		1.76265012		3.79758815		-0.00047089		-0.00031741		 0.00058387	
O		-0.43279016		0.88132506		16.14423277		 0.00047089		 0.00031741		-0.00058387	
H		0.37357891		0.88132506		9.42449555		 0.00006236		-0.00064857		 0.00046652	
H		-1.26207895		1.76265012		10.51732567		-0.00006236		 0.00064857		-0.00046652	
H		1.47192110		0.88132506		0.27164494		-0.00019034		-0.00009011		 0.00017902	
H		-2.36042114		1.76265012		19.67017597		 0.00019034		 0.00009011		-0.00017902	
Mg		-0.90055397		1.76265012		7.50461333		 0.00013745		 0.00016578		 0.00091378	
Mg		0.01205301		0.88132506		12.43720759		-0.00013745		-0.00016578		-0.00091378	
Mg		-0.30694698		0.00000000		2.55788804		 0.00003568		 0.00029770		 0.00037466	
Mg		-2.10805400		0.00000000		17.56711377		-0.00003568		-0.00029770		-0.00037466	
Mg		0.92250908		0.88132506		4.85008231		-0.00036116		-0.00066345		-0.00005607	
Mg		-1.81100820		1.76265012		15.09173768		 0.00036116		 0.00066345		 0.00005607	
