# total energy = -13384.6177742 eV	

CRYSTAL	
PRIMVEC	
		3.05300125		0.00000000		-0.48848156	
		-1.52649908		2.64397667		0.24423923	
		-3.22000035		0.00000000		20.12500064	
PRIMCOORD
   18 1	
O		-1.00238602		0.00000000		6.26491337		-0.00006952		 0.00037251		 0.00048475	
O		-2.21761403		0.00000000		13.86008758		 0.00006952		-0.00037251		-0.00048475	
O		0.14769587		0.88132504		8.37328526		 0.00014175		 0.00092821		 0.00080455	
O		-1.84119621		1.76265008		11.50747553		-0.00014175		-0.00092821		-0.00080455	
O		1.29530397		0.88132504		1.20073505		-0.00006528		 0.00046472		-0.00016898	
O		-2.98880401		1.76265008		18.68002574		 0.00006528		-0.00046472		 0.00016898	
O		-0.60761416		1.76265008		3.79758819		 0.00005502		-0.00021722		 0.00026060	
O		-1.08588618		0.88132504		16.08317260		-0.00005502		 0.00021722		-0.00026060	
H		-0.01072804		0.88132504		9.36343535		 0.00020316		 0.00004844		-0.00077280	
H		-1.68277200		1.76265008		10.51732544		-0.00020316		-0.00004844		 0.00077280	
H		1.45372819		0.88132504		0.21058496		 0.00005374		 0.00007184		 0.00046432	
H		-3.14722822		1.76265008		19.67017583		-0.00005374		-0.00007184		-0.00046432	
Mg		-1.20073814		1.76265008		7.50461323		-0.00004798		-0.00011301		-0.00014362	
Mg		-0.49276189		0.88132504		12.37614756		 0.00004798		 0.00011301		 0.00014362	
Mg		-0.40926203		0.00000000		2.55788802		 0.00014294		 0.00016349		 0.00068510	
Mg		-2.81073801		0.00000000		17.56711355		-0.00014294		-0.00016349		-0.00068510	
Mg		0.72117806		0.88132504		4.78902232		-0.00005254		 0.00020159		 0.00022602	
Mg		-2.41467809		1.76265008		15.09173754		 0.00005254		-0.00020159		-0.00022602	
