# total energy = -24709.3570174 eV

CRYSTAL
PRIMVEC
		9.53870002		0.00000000		0.00000000
		0.00000000		8.66009990		-1.03921275
		-1.68714803		-0.59810511		4.98419015
PRIMECORD
   40 1
Mg		-0.42178796		7.68093708		0.30639163		-0.00066248		 0.00018444		-0.00011508
Mg		-1.26536388		0.38105962		3.63858673		 0.00066248		-0.00018444		 0.00011508
Mg		4.34756205		3.35088713		0.82599801		-0.00065725		 0.00017989		-0.00011371
Mg		3.50398613		4.71110957		3.11898130		 0.00065725		-0.00017989		 0.00011371
Mg		-0.42178796		2.32379902		0.94924946		 0.00064492		-0.00003868		 0.00015191
Mg		-1.26536388		5.73819768		2.99572985		-0.00064492		 0.00003868		-0.00015191
Mg		4.34756205		6.65384897		0.42964308		 0.00064676		-0.00003840		 0.00015612
Mg		3.50398613		1.40814773		3.51533623		-0.00064676		 0.00003840		-0.00015612
Si		2.37296148		0.64960169		1.12902915		 0.00001324		-0.00066037		-0.00052612
Si		5.47858670		7.41239502		2.81595016		-0.00001324		 0.00066037		 0.00052612
Si		6.32216262		0.64445842		1.17189321		-0.00054683		 0.00046278		 0.00043446
Si		1.52938461		7.41753924		2.77308610		 0.00054683		-0.00046278		-0.00043446
Si		7.14231149		4.97965164		0.60942278		 0.00004239		-0.00062328		-0.00050934
Si		0.70923669		3.08234506		3.33555558		-0.00004239		 0.00062328		 0.00050934
Si		1.55281261		4.97450837		0.65228683		-0.00045979		 0.00049871		 0.00051279
Si		6.29873462		3.08748929		3.29269248		 0.00045979		-0.00049871		-0.00051279
O		0.84504584		0.63451814		0.60177178		-0.00078269		-0.00030084		-0.00005127
O		7.00650234		7.42747856		3.34320848		 0.00078269		 0.00030084		 0.00005127
O		7.85007827		0.50054328		1.71822988		-0.00031049		-0.00044188		-0.00015631
O		0.00146991		7.56145437		2.22674943		 0.00031049		 0.00044188		 0.00015631
O		5.61439585		4.96456809		0.08216636		-0.00079977		-0.00029067		-0.00003868
O		2.23715233		3.09742861		3.86281390		 0.00079977		 0.00029067		 0.00003868
O		3.08072825		4.83059324		1.19862446		-0.00036884		-0.00044377		-0.00018193
O		4.77081993		3.23140442		2.74635485		 0.00036884		 0.00044377		 0.00018193
O		2.93192644		2.04157083		1.31666873		-0.00033501		-0.00071442		 0.00064530
O		4.91962174		6.02042588		2.62830962		 0.00033501		 0.00071442		-0.00064530
O		5.76319766		2.12279286		0.63981594		-0.00051948		 0.00027576		-0.00027103
O		2.08834861		5.93920384		3.30516337		 0.00051948		-0.00027576		 0.00027103
O		7.70127645		6.37162078		0.79706427		-0.00033809		-0.00075855		 0.00059407
O		0.15027173		1.69037592		3.14791600		 0.00033809		 0.00075855		-0.00059407
O		0.99384765		6.45284281		0.12020956		-0.00053199		 0.00028346		-0.00027417
O		6.85769958		1.60915389		3.82476880		 0.00053199		-0.00028346		 0.00027417
O		3.33603347		0.04085998		0.12183686		 0.00094144		 0.00009234		 0.00056709
O		4.51551471		8.02113673		3.82314245		-0.00094144		-0.00009234		-0.00056709
O		5.35909063		-0.22733011		2.35674855		 0.00077936		-0.00009112		 0.00020338
O		2.49245659		8.28932682		1.58823075		-0.00077936		 0.00009112		-0.00020338
O		8.10538348		4.37090993		-0.39776856		 0.00093780		 0.00014776		 0.00063826
O		-0.25383530		3.69108678		4.34274787		-0.00093780		-0.00014776		-0.00063826
O		0.58974062		4.10271984		1.83714313		 0.00076429		-0.00008473		 0.00020168
O		7.26180660		3.95927687		2.10783713		-0.00076429		 0.00008473		-0.00020168
