# total energy = -18279.2839238 eV

CRYSTAL
PRIMVEC
		5.46939985		0.00000000		0.00000000
		-2.73469993		4.62111234		0.00000000
		0.00000000		0.00000000		14.61400122
PRIMECORD
   28 1
Mg		1.81584075		0.00000000		3.19754297		-0.00058534		-0.00000000		-0.00002776
Mg		-0.90791983		1.53420877		3.19754297		-0.00001032		-0.00049309		 0.00012817
Mg		1.82678010		3.08690193		3.19754297		-0.00001032		 0.00049309		 0.00012817
Mg		3.65355910		0.00000000		10.50454358		 0.00058534		-0.00000000		-0.00002776
Mg		-1.82678010		3.08690193		10.50454358		 0.00001032		 0.00049309		 0.00012817
Mg		0.90791983		1.53420877		10.50454358		 0.00001032		-0.00049309		 0.00012817
Si		0.00000000		3.08074065		0.42672914		 0.00018632		-0.00024478		 0.00015921
Si		2.73469993		1.54037005		7.73372866		-0.00018632		 0.00024478		 0.00015921
Si		0.00000000		3.08074065		7.73372866		-0.00018632		-0.00024478		 0.00015921
Si		2.73469993		1.54037115		0.42672914		 0.00018632		 0.00024478		 0.00015921
O		0.00000000		3.08074065		2.05472773		 0.00031911		-0.00047782		 0.00032082
O		2.73469993		1.54037005		9.36172779		-0.00031911		 0.00047782		 0.00032082
O		0.00000000		3.08074065		9.36172779		-0.00031911		-0.00047782		 0.00032082
O		2.73469993		1.54037115		2.05472773		 0.00031911		 0.00047782		 0.00032082
O		2.70188407		0.00000000		14.48247364		-0.00015459		-0.00000000		-0.00052276
O		-1.35094176		2.28282905		14.48247364		-0.00013353		 0.00062329		-0.00018944
O		1.38375816		2.33828275		14.48247364		-0.00013353		-0.00062329		-0.00018944
O		2.76751687		0.00000000		7.17547358		 0.00015459		0.00000000		-0.00052276
O		-1.38375816		2.33828275		7.17547358		 0.00013353		-0.00062329		-0.00018944
O		1.35094176		2.28282905		7.17547358		 0.00013353		 0.00062329		-0.00018944
O		3.64626675		0.00000000		4.17814291		 0.00066413		0.00000000		 0.00020578
O		-1.82313310		3.08074065		4.17814291		-0.00021458		-0.00090250		-0.00048898
O		0.91156682		1.54037005		4.17814291		-0.00021458		 0.00090250		-0.00048898
O		1.82313310		0.00000000		11.48514243		-0.00066413		-0.00000000		 0.00020578
O		-0.91156682		1.54037005		11.48514243		 0.00021458		 0.00090250		-0.00048898
O		1.82313310		3.08074065		11.48514243		 0.00021458		-0.00090250		-0.00048898
O		0.00000000		0.00000000		2.10441613		 0.00056474		0.00000000		 0.00048517
O		0.00000000		0.00000000		9.41141565		-0.00056474		-0.00000000		 0.00048517
