# total energy = -38096.1682732 eV	

CRYSTAL	
PRIMVEC	
		5.69209984		0.00000000		0.00000000	
		0.00000000		11.46000138		0.00000000	
		0.00000000		0.00000000		9.07830158	
PRIMCOORD
   58 1	
O		1.53572911		1.40843383		9.01384367		 0.00036554		-0.00047505		 0.00012360	
O		4.15637074		10.05156584		0.06445620		-0.00036554		 0.00047505		-0.00012360	
O		4.15637074		4.32156572		9.01384367		-0.00036554		 0.00047505		 0.00012360	
O		1.53572911		7.13843395		0.06445620		 0.00036554		-0.00047505		-0.00012360	
O		1.53572911		10.05156584		0.06445620		 0.00036554		 0.00047505		-0.00012360	
O		4.15637074		1.40843383		9.01384367		-0.00036554		-0.00047505		 0.00012360	
O		4.15637074		7.13843395		0.06445620		-0.00036554		-0.00047505		-0.00012360	
O		1.53572911		4.32156572		9.01384367		 0.00036554		 0.00047505		 0.00012360	
O		2.84604992		5.60966970		6.85956261		0.00000000		-0.00002691		 0.00014092	
O		2.84604992		5.85032997		2.21873669		0.00000000		 0.00002691		-0.00014092	
O		2.84604992		0.12032985		6.85956261		0.00000000		 0.00002691		 0.00014092	
O		2.84604992		11.33966982		2.21873669		0.00000000		-0.00002691		-0.00014092	
O		0.00000000		2.86500006		6.50732466		0.00000000		0.00000000		 0.00036192	
O		0.00000000		8.59499961		2.57097521		0.00000000		0.00000000		-0.00036192	
O		0.00000000		2.86500006		1.98542378		0.00000000		0.00000000		-0.00050728	
O		0.00000000		8.59499961		7.09287552		0.00000000		0.00000000		 0.00050728	
O		2.84604992		8.59499961		6.52457400		0.00000000		0.00000000		 0.00032632	
O		2.84604992		2.86500006		2.55372587		0.00000000		0.00000000		-0.00032632	
O		2.84604992		8.59499961		1.96817615		0.00000000		0.00000000		-0.00008456	
O		2.84604992		2.86500006		7.11012486		0.00000000		0.00000000		 0.00008456	
O		0.00000000		11.33966982		2.32041410		-0.00000000		-0.00009992		 0.00031794	
O		0.00000000		0.12032985		6.75788691		0.00000000		 0.00009992		-0.00031794	
O		0.00000000		5.85032997		2.32041410		0.00000000		 0.00009992		 0.00031794	
O		0.00000000		5.60966970		6.75788691		0.00000000		-0.00009992		-0.00031794	
O		4.38177903		7.13843395		4.47469402		 0.00031408		-0.00015665		 0.00034047	
O		1.31032081		4.32156572		4.60360585		-0.00031408		 0.00015665		-0.00034047	
O		1.31032081		10.05156584		4.47469402		-0.00031408		 0.00015665		 0.00034047	
O		4.38177903		1.40843383		4.60360585		 0.00031408		-0.00015665		-0.00034047	
O		4.38177903		4.32156572		4.60360585		 0.00031408		 0.00015665		-0.00034047	
O		1.31032081		7.13843395		4.47469402		-0.00031408		-0.00015665		 0.00034047	
O		1.31032081		1.40843383		4.60360585		-0.00031408		-0.00015665		-0.00034047	
O		4.38177903		10.05156584		4.47469402		 0.00031408		 0.00015665		 0.00034047	
H		2.84604992		8.59499961		5.36981372		0.00000000		0.00000000		 0.00014218	
H		2.84604992		2.86500006		3.70848615		0.00000000		0.00000000		-0.00014218	
H		0.00000000		2.86500006		3.14018406		0.00000000		0.00000000		-0.00025470	
H		0.00000000		8.59499961		5.93811581		0.00000000		0.00000000		 0.00025470	
Mg		2.84604992		5.73000012		4.53914965		0.00000000		0.00000000		0.00000000	
Mg		2.84604992		0.00000000		4.53914965		0.00000000		-0.00000000		0.00000000	
Mg		0.00000000		0.00000000		0.00000000		0.00000000		0.00000000		0.00000000	
Mg		0.00000000		5.73000012		0.00000000		0.00000000		0.00000000		0.00000000	
Mg		1.42302496		1.44854378		2.26957511		 0.00018830		-0.00019181		 0.00004479	
Mg		4.26907488		10.01145589		6.80872476		-0.00018830		 0.00019181		-0.00004479	
Mg		4.26907488		4.28145577		2.26957511		-0.00018830		 0.00019181		 0.00004479	
Mg		1.42302496		7.17854390		6.80872476		 0.00018830		-0.00019181		-0.00004479	
Mg		1.42302496		10.01145589		6.80872476		 0.00018830		 0.00019181		-0.00004479	
Mg		4.26907488		1.44854378		2.26957511		-0.00018830		-0.00019181		 0.00004479	
Mg		4.26907488		7.17854390		6.80872476		-0.00018830		-0.00019181		-0.00004479	
Mg		1.42302496		4.28145577		2.26957511		 0.00018830		 0.00019181		 0.00004479	
Mg		0.00000000		2.86500006		8.80685900		0.00000000		0.00000000		 0.00026549	
Mg		0.00000000		8.59499961		0.27144087		0.00000000		0.00000000		-0.00026549	
Si		2.84604992		7.10634588		1.05853021		0.00000000		-0.00008058		-0.00021187	
Si		2.84604992		4.35365379		8.01977080		0.00000000		 0.00008058		 0.00021187	
Si		2.84604992		10.08365392		1.05853021		0.00000000		 0.00008058		-0.00021187	
Si		2.84604992		1.37634576		8.01977080		0.00000000		-0.00008058		 0.00021187	
Si		0.00000000		1.37634576		5.59767986		0.00000000		 0.00007501		 0.00004655	
Si		0.00000000		10.08365392		3.48062115		0.00000000		-0.00007501		-0.00004655	
Si		0.00000000		4.35365379		5.59767986		0.00000000		-0.00007501		 0.00004655	
Si		0.00000000		7.10634588		3.48062115		0.00000000		 0.00007501		-0.00004655	
