# total energy = -38096.8328395 eV	

CRYSTAL	
PRIMVEC	
		5.69209984		0.00000000		0.00000000	
		0.00000000		11.46000138		0.00000000	
		0.00000000		0.00000000		7.84034955	
PRIMCOORD
   58 1	
O		1.53572911		1.40843383		7.78468366		-0.00049933		-0.00035758		-0.00007970	
O		4.15637074		10.05156584		0.05566589		 0.00049933		 0.00035758		 0.00007970	
O		4.15637074		4.32156572		7.78468366		 0.00049933		 0.00035758		-0.00007970	
O		1.53572911		7.13843395		0.05566589		-0.00049933		-0.00035758		 0.00007970	
O		1.53572911		10.05156584		0.05566589		-0.00049933		 0.00035758		 0.00007970	
O		4.15637074		1.40843383		7.78468366		 0.00049933		-0.00035758		-0.00007970	
O		4.15637074		7.13843395		0.05566589		 0.00049933		-0.00035758		 0.00007970	
O		1.53572911		4.32156572		7.78468366		-0.00049933		 0.00035758		-0.00007970	
O		2.84604992		5.60966970		5.92416789		0.00000000		-0.00008527		 0.00031127	
O		2.84604992		5.85032997		1.91618223		0.00000000		 0.00008527		-0.00031127	
O		2.84604992		0.12032985		5.92416789		0.00000000		 0.00008527		 0.00031127	
O		2.84604992		11.33966982		1.91618223		0.00000000		-0.00008527		-0.00031127	
O		0.00000000		2.86500006		5.61996272		0.00000000		0.00000000		 0.00011916	
O		0.00000000		8.59499961		2.22038683		0.00000000		0.00000000		-0.00011916	
O		0.00000000		2.86500006		1.71468474		0.00000000		0.00000000		 0.00052848	
O		0.00000000		8.59499961		6.12566595		0.00000000		0.00000000		-0.00052848	
O		2.84604992		8.59499961		5.63486009		0.00000000		0.00000000		-0.00057277	
O		2.84604992		2.86500006		2.20549117		0.00000000		0.00000000		 0.00057277	
O		2.84604992		8.59499961		1.69978795		0.00000000		0.00000000		-0.00032894	
O		2.84604992		2.86500006		6.14056274		0.00000000		0.00000000		 0.00032894	
O		0.00000000		11.33966982		2.00399369		0.00000000		 0.00042435		 0.00041860	
O		0.00000000		0.12032985		5.83635701		0.00000000		-0.00042435		-0.00041860	
O		0.00000000		5.85032997		2.00399369		0.00000000		-0.00042435		 0.00041860	
O		0.00000000		5.60966970		5.83635701		0.00000000		 0.00042435		-0.00041860	
O		4.38177903		7.13843395		3.86450889		-0.00051446		-0.00006459		-0.00053184	
O		1.31032081		4.32156572		3.97584181		 0.00051446		 0.00006459		 0.00053184	
O		1.31032081		10.05156584		3.86450889		 0.00051446		 0.00006459		-0.00053184	
O		4.38177903		1.40843383		3.97584181		-0.00051446		-0.00006459		 0.00053184	
O		4.38177903		4.32156572		3.97584181		-0.00051446		 0.00006459		 0.00053184	
O		1.31032081		7.13843395		3.86450889		 0.00051446		-0.00006459		-0.00053184	
O		1.31032081		1.40843383		3.97584181		 0.00051446		-0.00006459		 0.00053184	
O		4.38177903		10.05156584		3.86450889		-0.00051446		 0.00006459		-0.00053184	
H		2.84604992		8.59499961		4.63756663		0.00000000		0.00000000		 0.00010332	
H		2.84604992		2.86500006		3.20278293		0.00000000		0.00000000		-0.00010332	
H		0.00000000		2.86500006		2.71197706		0.00000000		0.00000000		 0.00059320	
H		0.00000000		8.59499961		5.12837306		0.00000000		0.00000000		-0.00059320	
Mg		2.84604992		5.73000012		3.92017478		0.00000000		0.00000000		0.00000000	
Mg		2.84604992		0.00000000		3.92017478		0.00000000		-0.00000000		0.00000000	
Mg		0.00000000		0.00000000		0.00000000		0.00000000		-0.00000000		0.00000000	
Mg		0.00000000		5.73000012		0.00000000		0.00000000		0.00000000		0.00000000	
Mg		1.42302496		1.44854378		1.96008767		-0.00023909		 0.00003462		 0.00001145	
Mg		4.26907488		10.01145589		5.88026302		 0.00023909		-0.00003462		-0.00001145	
Mg		4.26907488		4.28145577		1.96008767		 0.00023909		-0.00003462		 0.00001145	
Mg		1.42302496		7.17854390		5.88026302		-0.00023909		 0.00003462		-0.00001145	
Mg		1.42302496		10.01145589		5.88026302		-0.00023909		-0.00003462		-0.00001145	
Mg		4.26907488		1.44854378		1.96008767		 0.00023909		 0.00003462		 0.00001145	
Mg		4.26907488		7.17854390		5.88026302		 0.00023909		 0.00003462		-0.00001145	
Mg		1.42302496		4.28145577		1.96008767		-0.00023909		-0.00003462		 0.00001145	
Mg		0.00000000		2.86500006		7.60592384		0.00000000		0.00000000		 0.00028547	
Mg		0.00000000		8.59499961		0.23442686		0.00000000		0.00000000		-0.00028547	
Si		2.84604992		7.10634588		0.91418482		-0.00000000		 0.00012755		-0.00000236	
Si		2.84604992		4.35365379		6.92616587		0.00000000		-0.00012755		 0.00000236	
Si		2.84604992		10.08365392		0.91418482		0.00000000		-0.00012755		-0.00000236	
Si		2.84604992		1.37634576		6.92616587		0.00000000		 0.00012755		 0.00000236	
Si		0.00000000		1.37634576		4.83435959		0.00000000		 0.00016639		 0.00035019	
Si		0.00000000		10.08365392		3.00598996		0.00000000		-0.00016639		-0.00035019	
Si		0.00000000		4.35365379		4.83435959		-0.00000000		-0.00016639		 0.00035019	
Si		0.00000000		7.10634588		3.00598996		0.00000000		 0.00016639		-0.00035019	
