# total energy = -38092.3781523 eV	

CRYSTAL	
PRIMVEC	
		5.69209984		0.00000000		0.00000000	
		0.00000000		11.46000138		0.00000000	
		0.00000000		0.00000000		7.42770078	
PRIMCOORD
   58 1	
O		1.53572911		1.40843383		7.37496404		-0.00006341		 0.00044476		 0.00017339	
O		4.15637074		10.05156584		0.05273674		 0.00006341		-0.00044476		-0.00017339	
O		4.15637074		4.32156572		7.37496404		 0.00006341		-0.00044476		 0.00017339	
O		1.53572911		7.13843395		0.05273674		-0.00006341		 0.00044476		-0.00017339	
O		1.53572911		10.05156584		0.05273674		-0.00006341		-0.00044476		-0.00017339	
O		4.15637074		1.40843383		7.37496404		 0.00006341		 0.00044476		 0.00017339	
O		4.15637074		7.13843395		0.05273674		 0.00006341		 0.00044476		-0.00017339	
O		1.53572911		4.32156572		7.37496404		-0.00006341		-0.00044476		 0.00017339	
O		2.84604992		5.60966970		5.61237003		0.00000000		-0.00006466		 0.00016516	
O		2.84604992		5.85032997		1.81533017		0.00000000		 0.00006466		-0.00016516	
O		2.84604992		0.12032985		5.61237003		0.00000000		 0.00006466		 0.00016516	
O		2.84604992		11.33966982		1.81533017		0.00000000		-0.00006466		-0.00016516	
O		0.00000000		2.86500006		5.32417503		0.00000000		0.00000000		-0.00009556	
O		0.00000000		8.59499961		2.10352517		0.00000000		0.00000000		 0.00009556	
O		0.00000000		2.86500006		1.62443821		0.00000000		0.00000000		 0.00017050	
O		0.00000000		8.59499961		5.80326200		0.00000000		0.00000000		-0.00017050	
O		2.84604992		8.59499961		5.33828802		0.00000000		0.00000000		-0.00062275	
O		2.84604992		2.86500006		2.08941218		0.00000000		0.00000000		 0.00062275	
O		2.84604992		8.59499961		1.61032521		0.00000000		0.00000000		 0.00005228	
O		2.84604992		2.86500006		5.81737499		0.00000000		0.00000000		-0.00005228	
O		0.00000000		11.33966982		1.89852021		0.00000000		-0.00026854		 0.00055395	
O		0.00000000		0.12032985		5.52917999		0.00000000		 0.00026854		-0.00055395	
O		0.00000000		5.85032997		1.89852021		0.00000000		 0.00026854		 0.00055395	
O		0.00000000		5.60966970		5.52917999		0.00000000		-0.00026854		-0.00055395	
O		4.38177903		7.13843395		3.66111365		-0.00007241		 0.00032887		 0.00001893	
O		1.31032081		4.32156572		3.76658712		 0.00007241		-0.00032887		-0.00001893	
O		1.31032081		10.05156584		3.66111365		 0.00007241		-0.00032887		 0.00001893	
O		4.38177903		1.40843383		3.76658712		-0.00007241		 0.00032887		-0.00001893	
O		4.38177903		4.32156572		3.76658712		-0.00007241		-0.00032887		-0.00001893	
O		1.31032081		7.13843395		3.66111365		 0.00007241		 0.00032887		 0.00001893	
O		1.31032081		1.40843383		3.76658712		 0.00007241		 0.00032887		-0.00001893	
O		4.38177903		10.05156584		3.66111365		-0.00007241		-0.00032887		 0.00001893	
H		2.84604992		8.59499961		4.39348483		0.00000000		0.00000000		-0.00002940	
H		2.84604992		2.86500006		3.03421594		0.00000000		0.00000000		 0.00002940	
H		0.00000000		2.86500006		2.56924197		0.00000000		0.00000000		 0.00024795	
H		0.00000000		8.59499961		4.85845881		0.00000000		0.00000000		-0.00024795	
Mg		2.84604992		5.73000012		3.71384982		0.00000000		0.00000000		-0.00000000	
Mg		2.84604992		0.00000000		3.71384982		0.00000000		0.00000000		-0.00000000	
Mg		0.00000000		0.00000000		0.00000000		0.00000000		0.00000000		-0.00000000	
Mg		0.00000000		5.73000012		0.00000000		0.00000000		0.00000000		-0.00000000	
Mg		1.42302496		1.44854378		1.85692519		-0.00034517		 0.00031445		 0.00039760	
Mg		4.26907488		10.01145589		5.57077501		 0.00034517		-0.00031445		-0.00039760	
Mg		4.26907488		4.28145577		1.85692519		 0.00034517		-0.00031445		 0.00039760	
Mg		1.42302496		7.17854390		5.57077501		-0.00034517		 0.00031445		-0.00039760	
Mg		1.42302496		10.01145589		5.57077501		-0.00034517		-0.00031445		-0.00039760	
Mg		4.26907488		1.44854378		1.85692519		 0.00034517		 0.00031445		 0.00039760	
Mg		4.26907488		7.17854390		5.57077501		 0.00034517		 0.00031445		-0.00039760	
Mg		1.42302496		4.28145577		1.85692519		-0.00034517		-0.00031445		 0.00039760	
Mg		0.00000000		2.86500006		7.20561155		0.00000000		0.00000000		 0.00008407	
Mg		0.00000000		8.59499961		0.22208809		0.00000000		0.00000000		-0.00008407	
Si		2.84604992		7.10634588		0.86607007		0.00000000		-0.00032559		-0.00071952	
Si		2.84604992		4.35365379		6.56163071		0.00000000		 0.00032559		 0.00071952	
Si		2.84604992		10.08365392		0.86607007		0.00000000		 0.00032559		-0.00071952	
Si		2.84604992		1.37634576		6.56163071		0.00000000		-0.00032559		 0.00071952	
Si		0.00000000		1.37634576		4.57991989		0.00000000		-0.00003042		-0.00032738	
Si		0.00000000		10.08365392		2.84777975		0.00000000		 0.00003042		 0.00032738	
Si		0.00000000		4.35365379		4.57991989		0.00000000		 0.00003042		-0.00032738	
Si		0.00000000		7.10634588		2.84777975		0.00000000		-0.00003042		 0.00032738	
