# total energy = -12354.0220723 eV	

CRYSTAL	
PRIMVEC	
		2.68963417		0.00000000		0.00000000	
		0.00000000		9.09621143		0.00014033	
		0.00000000		0.00010833		6.67930040	
PRIMCOORD
   20 1	
O		0.00000000		0.66793250		1.67021397		 0.00000001		-0.00009502		-0.00006365	
O		0.00000000		8.42840178		5.00922922		 0.00000001		 0.00006180		 0.00006349	
O		1.34481708		5.21602443		1.67028463		 0.00000001		-0.00006188		-0.00006346	
O		1.34481708		3.88028179		5.00915832		-0.00000002		 0.00009508		 0.00006360	
O		0.00000000		3.39461066		2.96511130		 0.00000001		 0.00003101		 0.00019006	
O		0.00000000		5.70169654		3.71432968		-0.00000001		-0.00000025		-0.00018383	
O		0.00000000		5.70161653		6.30507762		 0.00000003		-0.00001846		 0.00005565	
O		0.00000000		3.39469092		0.37436730		 0.00000002		 0.00004913		-0.00006196	
O		1.34481733		7.94272942		2.96518392		 0.00000002		 0.00000020		 0.00018378	
O		1.34481733		1.15360363		3.71426100		-0.00000000		-0.00003095		-0.00019002	
O		1.34481733		1.15352361		6.30500474		-0.00000001		-0.00004921		 0.00006201	
O		1.34481757		7.94280944		0.37443599		-0.00000004		 0.00001855		-0.00005570	
Si		0.00000000		-0.00001600		0.00000000		-0.00000002		 0.00004328		-0.00000270	
Si		0.00000000		0.00003816		3.33964971		 0.00000001		 0.00004346		 0.00000278	
Si		1.34481708		4.54812221		0.00006992		 0.00000002		-0.00004329		 0.00000270	
Si		1.34481708		4.54817637		3.33972258		0.00000000		-0.00004346		-0.00000278	
Mg		0.00000000		2.35673925		5.00836629		 0.00000001		-0.00021084		 0.00063209	
Mg		0.00000000		6.73958296		1.67107666		-0.00000002		 0.00020403		-0.00063218	
Mg		1.34481733		6.90484300		5.00843671		 0.00000001		-0.00020402		 0.00063220	
Mg		1.34481757		2.19147528		1.67100575		-0.00000002		 0.00021084		-0.00063209	
