# total energy = -24715.6254452 eV

CRYSTAL
PRIMVEC
		9.27319965		0.00000000		0.00000000
		0.00000000		8.72660017		0.00000000
		0.00000000		0.00000000		5.05561862
PRIMECORD
   40 1
Mg		0.00000000		7.89582627		1.26390373		0.00000000		-0.00040539		0.00000000
Mg		0.00000000		0.83077205		3.79171119		0.00000000		 0.00040539		0.00000000
Mg		4.63659983		5.19407213		3.79171119		0.00000000		 0.00040539		0.00000000
Mg		4.63659983		3.53252804		1.26390373		0.00000000		-0.00040539		0.00000000
Mg		0.00000000		2.30993085		1.26390373		0.00000000		-0.00078555		-0.00000000
Mg		0.00000000		6.41666839		3.79171119		-0.00000000		 0.00078555		0.00000000
Mg		4.63659983		2.05336924		3.79171119		-0.00000000		 0.00078555		0.00000000
Mg		4.63659983		6.67323094		1.26390373		0.00000000		-0.00078555		0.00000000
Si		2.70591966		0.79935723		0.33670432		-0.00004717		 0.00016555		-0.00031570
Si		6.56727999		7.92724294		4.71891060		 0.00004717		-0.00016555		 0.00031570
Si		1.93068017		3.56394286		2.86451177		 0.00004717		-0.00016555		-0.00031570
Si		7.34251948		5.16265546		2.19110407		-0.00004717		 0.00016555		 0.00031570
Si		6.56727999		0.79935723		2.19110407		 0.00004717		 0.00016555		 0.00031570
Si		2.70591966		7.92724294		2.86451177		-0.00004717		-0.00016555		-0.00031570
Si		7.34251948		3.56394286		4.71891060		-0.00004717		-0.00016555		 0.00031570
Si		1.93068017		5.16265546		0.33670432		 0.00004717		 0.00016555		-0.00031570
O		1.08774632		0.81681032		0.40040471		-0.00003025		-0.00014700		 0.00002009
O		8.18545333		7.90978985		4.65521021		 0.00003025		 0.00014700		-0.00002009
O		3.54885351		3.54648977		2.92821216		 0.00003025		 0.00014700		 0.00002009
O		5.72434614		5.18010855		2.12740275		-0.00003025		-0.00014700		-0.00002009
O		8.18545333		0.81681032		2.12740275		 0.00003025		-0.00014700		-0.00002009
O		1.08774632		7.90978985		2.92821216		-0.00003025		 0.00014700		 0.00002009
O		5.72434614		3.54648977		4.65521021		-0.00003025		 0.00014700		-0.00002009
O		3.54885351		5.18010855		0.40040471		 0.00003025		-0.00014700		 0.00002009
O		3.49321524		2.18688569		0.35389312		-0.00042687		 0.00021847		 0.00054723
O		5.77998442		6.53971355		4.70172180		 0.00042687		-0.00021847		-0.00054723
O		1.14338459		2.17641347		2.88170058		 0.00042687		-0.00021847		 0.00054723
O		8.12981506		6.55018578		2.17391527		-0.00042687		 0.00021847		-0.00054723
O		5.77998442		2.18688569		2.17391527		 0.00042687		 0.00021847		-0.00054723
O		3.49321524		6.53971355		2.88170058		-0.00042687		-0.00021847		 0.00054723
O		8.12981506		2.17641347		4.70172180		-0.00042687		-0.00021847		-0.00054723
O		1.14338459		6.55018578		0.35389312		 0.00042687		 0.00021847		 0.00054723
O		3.24747452		8.50232598		1.46208406		-0.00025667		 0.00023695		-0.00001178
O		6.02572513		0.22427326		3.59353085		 0.00025667		-0.00023695		 0.00001178
O		1.38912531		4.58757242		3.98989059		 0.00025667		-0.00023695		-0.00001178
O		7.88407434		4.13902590		1.06572432		-0.00025667		 0.00023695		 0.00001178
O		6.02572513		8.50232598		1.06572432		 0.00025667		 0.00023695		 0.00001178
O		3.24747452		0.22427326		3.98989059		-0.00025667		-0.00023695		-0.00001178
O		7.88407434		4.58757242		3.59353085		-0.00025667		-0.00023695		 0.00001178
O		1.38912531		4.13902590		1.46208406		 0.00025667		 0.00023695		-0.00001178
