# total energy = -24713.0576992 eV

CRYSTAL
PRIMVEC
		9.27319965		0.00000000		0.00000000
		0.00000000		8.72660017		0.00000000
		0.00000000		0.00000000		4.78953343
PRIMECORD
   40 1
Mg		0.00000000		7.89582627		1.19738336		-0.00000000		-0.00033055		0.00000000
Mg		0.00000000		0.83077205		3.59214822		0.00000000		 0.00033055		-0.00000000
Mg		4.63659983		5.19407213		3.59214822		0.00000000		 0.00033055		0.00000000
Mg		4.63659983		3.53252804		1.19738336		-0.00000000		-0.00033055		-0.00000000
Mg		0.00000000		2.30993085		1.19738336		0.00000000		 0.00022512		0.00000000
Mg		0.00000000		6.41666839		3.59214822		0.00000000		-0.00022512		0.00000000
Mg		4.63659983		2.05336924		3.59214822		0.00000000		-0.00022512		0.00000000
Mg		4.63659983		6.67323094		1.19738336		-0.00000000		 0.00022512		0.00000000
Si		2.70591966		0.79935723		0.31898323		-0.00023315		-0.00005986		-0.00023665
Si		6.56727999		7.92724294		4.47054649		 0.00023315		 0.00005986		 0.00023665
Si		1.93068017		3.56394286		2.71374809		 0.00023315		 0.00005986		-0.00023665
Si		7.34251948		5.16265546		2.07578163		-0.00023315		-0.00005986		 0.00023665
Si		6.56727999		0.79935723		2.07578163		 0.00023315		-0.00005986		 0.00023665
Si		2.70591966		7.92724294		2.71374809		-0.00023315		 0.00005986		-0.00023665
Si		7.34251948		3.56394286		4.47054649		-0.00023315		 0.00005986		 0.00023665
Si		1.93068017		5.16265546		0.31898323		 0.00023315		-0.00005986		-0.00023665
O		1.08774632		0.81681032		0.37933136		-0.00022155		-0.00087901		-0.00029570
O		8.18545333		7.90978985		4.41019929		 0.00022155		 0.00087901		 0.00029570
O		3.54885351		3.54648977		2.77409622		 0.00022155		 0.00087901		-0.00029570
O		5.72434614		5.18010855		2.01543350		-0.00022155		-0.00087901		 0.00029570
O		8.18545333		0.81681032		2.01543350		 0.00022155		-0.00087901		 0.00029570
O		1.08774632		7.90978985		2.77409622		-0.00022155		 0.00087901		-0.00029570
O		5.72434614		3.54648977		4.41019929		-0.00022155		 0.00087901		 0.00029570
O		3.54885351		5.18010855		0.37933136		 0.00022155		-0.00087901		-0.00029570
O		3.49321524		2.18688569		0.33526697		-0.00034674		-0.00018804		 0.00046278
O		5.77998442		6.53971355		4.45426276		 0.00034674		 0.00018804		-0.00046278
O		1.14338459		2.17641347		2.73003183		 0.00034674		 0.00018804		 0.00046278
O		8.12981506		6.55018578		2.05949789		-0.00034674		-0.00018804		-0.00046278
O		5.77998442		2.18688569		2.05949789		 0.00034674		-0.00018804		-0.00046278
O		3.49321524		6.53971355		2.73003183		-0.00034674		 0.00018804		 0.00046278
O		8.12981506		2.17641347		4.45426276		-0.00034674		 0.00018804		-0.00046278
O		1.14338459		6.55018578		0.33526697		 0.00034674		-0.00018804		 0.00046278
O		3.24747452		8.50232598		1.38513227		 0.00010359		 0.00010740		 0.00012495
O		6.02572513		0.22427326		3.40439746		-0.00010359		-0.00010740		-0.00012495
O		1.38912531		4.58757242		3.77989713		-0.00010359		-0.00010740		 0.00012495
O		7.88407434		4.13902590		1.00963259		 0.00010359		 0.00010740		-0.00012495
O		6.02572513		8.50232598		1.00963259		-0.00010359		 0.00010740		-0.00012495
O		3.24747452		0.22427326		3.77989713		 0.00010359		-0.00010740		 0.00012495
O		7.88407434		4.58757242		3.40439746		 0.00010359		-0.00010740		-0.00012495
O		1.38912531		4.13902590		1.38513227		-0.00010359		 0.00010740		 0.00012495
