# total energy = -2069.0544536 eV

CRYSTAL
PRIMVEC
		2.71766889		0.00000000		0.00000000
		-1.35883444		2.54440119		0.00000000
		0.00000000		0.00000000		2.67967859
PRIMECORD
   2 1
Mg		0.00000000		0.00000000		0.00000000		0.00000000		 0.00094314		0.00000000
O		0.00000000		1.69626701		1.33983984		0.00000000		-0.00094314		0.00000000
