# total energy = -2069.09579222 eV

CRYSTAL
PRIMVEC
		3.08492210		0.00000000		0.00000000
		-1.54246105		2.54440056		0.00000000
		0.00000000		0.00000000		2.67968056
PRIMECORD
   2 1
Mg		0.00000000		0.00000000		0.00000000		0.00000000		 0.00083340		0.00000000
O		0.00000000		1.69626694		1.33983997		0.00000000		-0.00083340		0.00000000
