# total energy = -10315.774103 eV	

CRYSTAL	
PRIMVEC	
		4.97999984		0.00000000		0.00000000	
		0.00000000		8.84999756		0.70800160	
		0.00000000		0.22000145		2.75000073	
PRIMCOORD
   14 1	
Si		0.00000000		0.00000000		0.00000000		0.00000000		0.00000000		0.00000000	
Si		2.48999992		4.42499978		0.35399980		0.00000000		0.00000000		0.00000000	
Mg		0.40786199		3.05616515		1.61069280		 0.00026306		 0.00079803		 0.00020877	
Mg		4.57213786		6.01383486		1.84730704		-0.00026306		-0.00079803		-0.00020877	
Mg		2.08213793		7.48116493		1.96469310		-0.00026306		 0.00079803		 0.00020877	
Mg		2.89786191		1.58883509		1.49330674		 0.00026306		-0.00079803		-0.00020877	
O		1.07767197		0.50647993		1.40671799		 0.00043644		 0.00007039		 0.00024768	
O		3.90232788		8.56352058		2.05128186		-0.00043644		-0.00007039		-0.00024768	
O		1.41232796		4.93147971		1.76071779		-0.00043644		 0.00007039		 0.00024768	
O		3.56767189		4.13851981		1.69728205		 0.00043644		-0.00007039		-0.00024768	
O		1.95464994		2.73199505		0.21856024		-0.00010810		 0.00070235		 0.00011956	
O		3.02534991		6.11800600		0.48943986		 0.00010810		-0.00070235		-0.00011956	
O		0.53534998		7.15699482		0.57256004		 0.00010810		 0.00070235		 0.00011956	
O		4.44464986		1.69300473		0.13544006		-0.00010810		-0.00070235		-0.00011956	
