# total energy = -10314.4107354 eV	

CRYSTAL	
PRIMVEC	
		4.97999984		0.00000000		0.00000000	
		0.00000000		8.84999756		1.06199991	
		0.00000000		0.32999969		2.75000073	
PRIMCOORD
   14 1	
Si		0.00000000		0.00000000		0.00000000		0.00000000		0.00000000		0.00000000	
Si		2.48999992		4.42499978		0.53099995		0.00000000		0.00000000		0.00000000	
Mg		0.40786199		3.11116476		1.72854002		 0.00084061		 0.00032271		 0.00013375	
Mg		4.57213786		6.06883498		2.08346012		-0.00084061		-0.00032271		-0.00013375	
Mg		2.08213793		7.53616454		2.25953997		-0.00084061		 0.00032271		 0.00013375	
Mg		2.89786191		1.64383470		1.55246017		 0.00084061		-0.00032271		-0.00013375	
O		1.07767197		0.56148004		1.42257779		-0.00050219		 0.00030988		-0.00090085	
O		3.90232788		8.61852070		2.38942185		 0.00050219		-0.00030988		 0.00090085	
O		1.41232796		4.98647982		1.95357774		 0.00050219		 0.00030988		-0.00090085	
O		3.56767189		4.19351992		1.85842190		-0.00050219		-0.00030988		 0.00090085	
O		1.95464994		2.73199505		0.32783887		 0.00071818		-0.00067178		 0.00037135	
O		3.02534991		6.11800600		0.73416104		-0.00071818		 0.00067178		-0.00037135	
O		0.53534998		7.15699482		0.85883882		-0.00071818		-0.00067178		 0.00037135	
O		4.44464986		1.69300473		0.20316109		 0.00071818		 0.00067178		-0.00037135	
