# total energy = -49431.4216448 eV

CRYSTAL
PRIMVEC
		18.23300630		0.00000000		2.91728913
		0.00000000		8.81909813		0.00000000
		0.82883428		0.00000000		5.18020042
PRIMECORD
   80 1
Mg		7.57909468		5.76857361		5.58537957		 0.00001890		 0.00036423		 0.00027338
Mg		11.48273668		3.05052636		2.51210075		-0.00001890		-0.00036423		-0.00027338
Mg		2.55902377		3.05052636		2.25837446		 0.00028176		 0.00003087		 0.00016835
Mg		16.50280758		5.76857361		5.83910401		-0.00028176		-0.00003087		-0.00016835
Mg		11.89715197		1.35902270		5.10219912		-0.00001890		 0.00036423		-0.00027338
Mg		7.16467938		7.46007727		2.99527936		 0.00001890		-0.00036423		 0.00027338
Mg		16.08839229		7.46007727		3.24900565		-0.00028176		 0.00003087		-0.00016835
Mg		2.97343907		1.35902270		4.84847468		 0.00028176		-0.00003087		 0.00016835
Mg		7.16948395		4.29666570		2.95869669		-0.00033094		-0.00021920		 0.00007896
Mg		11.89234740		4.52243427		5.13878364		 0.00033094		 0.00021920		-0.00007896
Mg		2.95636642		4.52243427		4.80839106		 0.00042391		 0.00003182		-0.00021236
Mg		16.10546494		4.29666570		3.28908927		-0.00042391		-0.00003182		 0.00021236
Mg		11.47793026		8.70621661		2.54868343		 0.00033094		-0.00021920		-0.00007896
Mg		7.58390109		0.11288521		5.54879690		-0.00033094		 0.00021920		 0.00007896
Mg		16.51988023		0.11288521		5.87918948		-0.00042391		 0.00003182		 0.00021236
Mg		2.54194927		8.70621661		2.21829084		 0.00042391		-0.00003182		-0.00021236
Si		4.99219813		3.01436838		1.05415970		-0.00008643		-0.00040664		 0.00022352
Si		14.06963323		5.80473159		7.04332063		 0.00008643		 0.00040664		-0.00022352
Si		4.62259531		5.80473159		3.51881672		-0.00022215		 0.00016593		 0.00031366
Si		14.43923604		3.01436838		4.57866361		 0.00022215		-0.00016593		-0.00031366
Si		13.65521793		7.42391744		4.45322041		 0.00008643		-0.00040664		-0.00022352
Si		5.40661342		1.39518253		3.64425991		-0.00008643		 0.00040664		 0.00022352
Si		14.85365134		1.39518253		7.16876197		 0.00022215		 0.00016593		-0.00031366
Si		4.20818002		7.42391744		0.92871651		-0.00022215		-0.00016593		 0.00031366
Si		9.29663940		2.97556438		5.51594044		 0.00000408		-0.00033296		 0.00006320
Si		9.76519196		5.84353559		2.58153803		-0.00000408		 0.00033296		-0.00006320
Si		0.72842581		5.84353559		1.62123361		 0.00017574		 0.00004597		-0.00000725
Si		18.33340554		2.97556438		6.47624671		-0.00017574		-0.00004597		 0.00000725
Si		10.17960725		7.38511344		5.17163825		-0.00000408		-0.00033296		-0.00006320
Si		8.88222410		1.43398653		2.92584023		 0.00000408		 0.00033296		 0.00006320
Si		17.91899025		1.43398653		3.88614650		-0.00017574		 0.00004597		 0.00000725
Si		1.14284111		7.38511344		4.21133382		 0.00017574		-0.00004597		-0.00000725
O		3.37393552		3.00466877		0.71144733		-0.00021400		 0.00000130		-0.00018305
O		15.68789584		5.81443305		7.38603300		 0.00021400		-0.00000130		 0.00018305
O		6.21334152		5.81443305		3.68954510		-0.00032019		 0.00044753		 0.00019340
O		12.84848984		3.00466877		4.40793338		 0.00032019		-0.00044753		-0.00019340
O		15.27347870		7.41421783		4.79593278		 0.00021400		 0.00000130		 0.00018305
O		3.78835266		1.40488214		3.30154754		-0.00021400		-0.00000130		-0.00018305
O		13.26290698		1.40488214		6.99803360		 0.00032019		 0.00044753		-0.00019340
O		5.79892438		7.41421783		1.09944673		-0.00032019		-0.00044753		 0.00019340
O		5.71339493		4.43512665		1.13118975		 0.00013926		 0.00020012		-0.00023043
O		13.34843643		4.38397517		6.96629057		-0.00013926		-0.00020012		 0.00023043
O		3.88879991		4.38397517		3.36304861		-0.00007965		 0.00028911		-0.00030341
O		15.17303145		4.43512665		4.73443172		 0.00007965		-0.00028911		 0.00030341
O		12.93401929		0.02557574		4.37619036		-0.00013926		 0.00020012		 0.00023043
O		6.12781207		8.79352423		3.72128996		 0.00013926		-0.00020012		-0.00023043
O		15.58744674		8.79352423		7.32453193		 0.00007965		 0.00028911		 0.00030341
O		3.47438461		0.02557574		0.77294840		-0.00007965		-0.00028911		-0.00030341
O		6.20507109		1.96136828		5.19240388		 0.00092427		 0.00018312		-0.00003169
O		12.85676027		6.85773169		2.90507644		-0.00092427		-0.00018312		 0.00003169
O		3.87619022		6.85773169		2.29598933		 0.00022012		-0.00034223		-0.00018207
O		15.18564113		1.96136828		5.80149100		-0.00022012		 0.00034223		 0.00018207
O		13.27117741		6.37091734		5.49517666		-0.00092427		 0.00018312		 0.00003169
O		5.79065395		2.44818263		2.60230367		 0.00092427		-0.00018312		-0.00003169
O		14.77122584		2.44818263		3.21139079		-0.00022012		-0.00034223		 0.00018207
O		4.29060552		6.37091734		4.88608954		 0.00022012		 0.00034223		-0.00018207
O		10.91200117		3.01084158		5.77389335		-0.00007618		-0.00007076		-0.00022618
O		8.14983018		5.80825839		2.32358513		 0.00007618		 0.00007076		 0.00022618
O		17.34589862		5.80825839		4.27952473		-0.00006002		-0.00009818		 0.00008157
O		1.71593274		3.01084158		3.81795560		 0.00006002		 0.00009818		-0.00008157
O		8.56424732		7.42039065		4.91368534		 0.00007618		-0.00007076		 0.00022618
O		10.49758403		1.39870932		3.18379314		-0.00007618		 0.00007076		-0.00022618
O		1.30151744		1.39870932		1.22785539		 0.00006002		-0.00009818		-0.00008157
O		17.76031391		7.42039065		6.86962494		-0.00006002		 0.00009818		 0.00008157
O		8.45584355		4.26491714		4.83576897		-0.00014601		-0.00042225		-0.00023312
O		10.60598781		4.55418283		3.26170951		 0.00014601		 0.00042225		 0.00023312
O		1.39002897		4.55418283		1.18144569		-0.00014969		 0.00041123		-0.00017207
O		17.67180238		4.26491714		6.91603464		 0.00014969		-0.00041123		 0.00017207
O		11.02040495		8.67446620		5.85180972		 0.00014601		-0.00042225		 0.00023312
O		8.04142641		0.14463377		2.24567061		-0.00014601		 0.00042225		-0.00023312
O		17.25738709		0.14463377		4.32593442		 0.00014969		 0.00041123		 0.00017207
O		1.80444427		8.67446620		3.77154590		-0.00014969		-0.00041123		-0.00017207
O		8.67363897		1.72060620		4.43147614		-0.00061900		-0.00008989		 0.00010828
O		10.38819238		7.09849377		3.66600234		 0.00061900		 0.00008989		-0.00010828
O		1.02801524		7.09849377		0.68438332		-0.00015274		 0.00002511		-0.00012950
O		18.03381612		1.72060620		7.41309516		 0.00015274		-0.00002511		 0.00012950
O		10.80260768		6.13015711		6.25610255		 0.00061900		-0.00008989		-0.00010828
O		8.25922368		2.68894471		1.84137777		-0.00061900		 0.00008989		 0.00010828
O		17.61939898		2.68894471		4.82299495		 0.00015274		 0.00002511		 0.00012950
O		1.44243238		6.13015711		3.27448353		-0.00015274		-0.00002511		-0.00012950
