# total energy = -20637.2762067 eV	

CRYSTAL	
PRIMVEC	
		10.20140980		0.00000000		0.00000000	
		0.00000000		5.53472388		0.00000000	
		0.00000000		0.00000000		4.75533617	
PRIMCOORD
   28 1	
Mg		0.00000000		0.00000000		0.00000000		0.00000000		0.00000000		0.00000000	
Mg		5.10070490		0.00000000		2.37767013		0.00000000		0.00000000		0.00000000	
Mg		0.00000000		2.76735888		0.00000000		0.00000000		-0.00000000		0.00000000	
Mg		5.10070490		2.76735888		2.37767013		0.00000000		0.00000000		-0.00000000	
Mg		2.82885094		1.38368046		4.71492022		 0.00045534		-0.00000000		-0.00053405	
Mg		7.37255886		4.15103934		0.04042003		-0.00045534		0.00000000		 0.00053405	
Mg		2.27185396		4.15103934		2.33725010		-0.00045534		0.00000000		-0.00053405	
Mg		7.92955584		1.38368046		2.41809015		 0.00045534		0.00000000		 0.00053405	
Si		0.95893252		1.38368046		2.02767710		 0.00080225		0.00000000		-0.00027539	
Si		9.24247830		4.15103934		2.72766315		-0.00080225		0.00000000		 0.00027539	
Si		4.14177340		4.15103934		4.40534722		-0.00080225		0.00000000		-0.00027539	
Si		6.05963742		1.38368046		0.34999303		 0.00080225		0.00000000		 0.00027539	
O		0.93444914		1.38368046		3.63926215		 0.00023662		0.00000000		 0.00012296	
O		9.26696066		4.15103934		1.11607810		-0.00023662		0.00000000		-0.00012296	
O		4.16625576		4.15103934		1.26159203		-0.00023662		0.00000000		 0.00012296	
O		6.03515404		1.38368046		3.49374822		 0.00023662		0.00000000		-0.00012296	
O		4.55901004		1.38368046		1.05140626		 0.00011771		-0.00000000		-0.00007103	
O		5.64239976		4.15103934		3.70393501		-0.00011771		0.00000000		 0.00007103	
O		0.54169486		4.15103934		3.42907639		-0.00011771		0.00000000		-0.00007103	
O		9.65971596		1.38368046		1.32626386		 0.00011771		-0.00000000		 0.00007103	
O		1.65976937		0.18375289		1.32103258		-0.00045172		 0.00045304		-0.00016763	
O		8.54164042		5.35096588		3.43430665		 0.00045172		-0.00045304		 0.00016763	
O		3.44093552		5.35096588		3.69870271		 0.00045172		-0.00045304		-0.00016763	
O		6.76047529		0.18375289		1.05663652		-0.00045172		 0.00045304		 0.00016763	
O		8.54164042		2.95111177		3.43430665		 0.00045172		 0.00045304		 0.00016763	
O		1.65976937		2.58360701		1.32103258		-0.00045172		-0.00045304		-0.00016763	
O		6.76047529		2.58360701		1.05663652		-0.00045172		-0.00045304		 0.00016763	
O		3.44093552		2.95111177		3.69870271		 0.00045172		 0.00045304		-0.00016763	
