# total energy = -20638.1208218 eV	

CRYSTAL	
PRIMVEC	
		10.20140980		0.00000000		0.00000000	
		0.00000000		6.43224391		0.00000000	
		0.00000000		0.00000000		4.75533617	
PRIMCOORD
   28 1	
Mg		0.00000000		0.00000000		0.00000000		0.00000000		0.00000000		0.00000000	
Mg		5.10070490		0.00000000		2.37767013		0.00000000		0.00000000		0.00000000	
Mg		0.00000000		3.21611992		0.00000000		0.00000000		-0.00000000		0.00000000	
Mg		5.10070490		3.21611992		2.37767013		0.00000000		0.00000000		0.00000000	
Mg		2.82885094		1.60806047		4.71492022		 0.00002928		0.00000000		 0.00011730	
Mg		7.37255886		4.82418140		0.04042003		-0.00002928		0.00000000		-0.00011730	
Mg		2.27185396		4.82418140		2.33725010		-0.00002928		-0.00000000		 0.00011730	
Mg		7.92955584		1.60806047		2.41809015		 0.00002928		-0.00000000		-0.00011730	
Si		0.95893252		1.60806047		2.02767710		-0.00015361		0.00000000		 0.00012791	
Si		9.24247830		4.82418140		2.72766315		 0.00015361		0.00000000		-0.00012791	
Si		4.14177340		4.82418140		4.40534722		 0.00015361		0.00000000		 0.00012791	
Si		6.05963742		1.60806047		0.34999303		-0.00015361		0.00000000		-0.00012791	
O		0.93444914		1.60806047		3.63926215		 0.00060243		0.00000000		-0.00005406	
O		9.26696066		4.82418140		1.11607810		-0.00060243		-0.00000000		 0.00005406	
O		4.16625576		4.82418140		1.26159203		-0.00060243		-0.00000000		-0.00005406	
O		6.03515404		1.60806047		3.49374822		 0.00060243		0.00000000		 0.00005406	
O		4.55901004		1.60806047		1.05140626		 0.00001808		0.00000000		 0.00000644	
O		5.64239976		4.82418140		3.70393501		-0.00001808		0.00000000		-0.00000644	
O		0.54169486		4.82418140		3.42907639		-0.00001808		0.00000000		 0.00000644	
O		9.65971596		1.60806047		1.32626386		 0.00001808		0.00000000		-0.00000644	
O		1.65976937		0.21355019		1.32103258		-0.00044131		 0.00003356		-0.00029931	
O		8.54164042		6.21868964		3.43430665		 0.00044131		-0.00003356		 0.00029931	
O		3.44093552		6.21868964		3.69870271		 0.00044131		-0.00003356		-0.00029931	
O		6.76047529		0.21355019		1.05663652		-0.00044131		 0.00003356		 0.00029931	
O		8.54164042		3.42967113		3.43430665		 0.00044131		 0.00003356		 0.00029931	
O		1.65976937		3.00256972		1.32103258		-0.00044131		-0.00003356		-0.00029931	
O		6.76047529		3.00256972		1.05663652		-0.00044131		-0.00003356		 0.00029931	
O		3.44093552		3.42967113		3.69870271		 0.00044131		 0.00003356		-0.00029931	
