# total energy = -20638.1362363 eV	

CRYSTAL	
PRIMVEC	
		10.20140980		0.00000000		0.00000000	
		0.00000000		5.68430715		0.00000000	
		0.00000000		0.00000000		4.75533617	
PRIMCOORD
   28 1	
Mg		0.00000000		0.00000000		0.00000000		0.00000000		0.00000000		0.00000000	
Mg		5.10070490		0.00000000		2.37767013		-0.00000000		0.00000000		0.00000000	
Mg		0.00000000		2.84215256		0.00000000		0.00000000		0.00000000		0.00000000	
Mg		5.10070490		2.84215256		2.37767013		0.00000000		0.00000000		-0.00000000	
Mg		2.82885094		1.42107577		4.71492022		 0.00028712		0.00000000		-0.00044083	
Mg		7.37255886		4.26322934		0.04042003		-0.00028712		0.00000000		 0.00044083	
Mg		2.27185396		4.26322934		2.33725010		-0.00028712		0.00000000		-0.00044083	
Mg		7.92955584		1.42107577		2.41809015		 0.00028712		0.00000000		 0.00044083	
Si		0.95893252		1.42107577		2.02767710		 0.00076791		0.00000000		-0.00019968	
Si		9.24247830		4.26322934		2.72766315		-0.00076791		0.00000000		 0.00019968	
Si		4.14177340		4.26322934		4.40534722		-0.00076791		0.00000000		-0.00019968	
Si		6.05963742		1.42107577		0.34999303		 0.00076791		0.00000000		 0.00019968	
O		0.93444914		1.42107577		3.63926215		-0.00001058		0.00000000		-0.00001151	
O		9.26696066		4.26322934		1.11607810		 0.00001058		0.00000000		 0.00001151	
O		4.16625576		4.26322934		1.26159203		 0.00001058		0.00000000		-0.00001151	
O		6.03515404		1.42107577		3.49374822		-0.00001058		0.00000000		 0.00001151	
O		4.55901004		1.42107577		1.05140626		 0.00014497		0.00000000		-0.00007617	
O		5.64239976		4.26322934		3.70393501		-0.00014497		0.00000000		 0.00007617	
O		0.54169486		4.26322934		3.42907639		-0.00014497		0.00000000		-0.00007617	
O		9.65971596		1.42107577		1.32626386		 0.00014497		0.00000000		 0.00007617	
O		1.65976937		0.18871894		1.32103258		-0.00036996		 0.00009830		-0.00006599	
O		8.54164042		5.49558719		3.43430665		 0.00036996		-0.00009830		 0.00006599	
O		3.44093552		5.49558719		3.69870271		 0.00036996		-0.00009830		-0.00006599	
O		6.76047529		0.18871894		1.05663652		-0.00036996		 0.00009830		 0.00006599	
O		8.54164042		3.03087150		3.43430665		 0.00036996		 0.00009830		 0.00006599	
O		1.65976937		2.65343361		1.32103258		-0.00036996		-0.00009830		-0.00006599	
O		6.76047529		2.65343361		1.05663652		-0.00036996		-0.00009830		 0.00006599	
O		3.44093552		3.03087150		3.69870271		 0.00036996		 0.00009830		-0.00006599	
