# total energy = -24716.3923452 eV

CRYSTAL
PRIMVEC
		10.01563473		0.00000000		0.00000000
		0.00000000		8.66009870		0.00000000
		-1.77150538		0.00000000		4.98419048
PRIMECORD
   40 1
Mg		-0.44287735		7.83046261		1.24604812		-0.00000008		 0.00026253		 0.00000010
Mg		-1.32863204		0.82963709		3.73814336		 0.00000008		-0.00026253		-0.00000010
Mg		4.56494002		3.50041326		1.24604812		-0.00000009		 0.00024062		 0.00000012
Mg		3.67918533		5.15968644		3.73814336		 0.00000009		-0.00024062		-0.00000012
Mg		-0.44287735		2.47332494		1.24604812		 0.00000009		-0.00036076		 0.00000035
Mg		-1.32863204		6.18677476		3.73814336		-0.00000009		 0.00036076		-0.00000035
Mg		4.56494002		6.80337529		1.24604812		 0.00000007		-0.00029001		 0.00000034
Mg		3.67918533		1.85672541		3.73814336		-0.00000007		 0.00029001		-0.00000034
Si		2.49160848		0.79655645		1.22461567		-0.00017845		-0.00045274		-0.00031418
Si		5.75251587		7.86354425		3.75957482		 0.00017845		 0.00045274		 0.00031418
Si		6.63827056		0.79655645		1.26747958		 0.00018153		-0.00045633		 0.00031609
Si		1.60585379		7.86354425		3.71671091		-0.00018153		 0.00045633		-0.00031609
Si		7.49942685		5.12660580		1.22461567		 0.00020518		-0.00007965		-0.00013953
Si		0.74469850		3.53349390		3.75957482		-0.00020518		 0.00007965		 0.00013953
Si		1.63045319		5.12660580		1.26747958		-0.00020194		-0.00008337		 0.00014150
Si		6.61367216		3.53349390		3.71671091		 0.00020194		 0.00008337		-0.00014150
O		0.88729810		0.71705635		0.68781771		-0.00047749		-0.00010304		 0.00010108
O		7.35682725		7.94304235		4.29637278		 0.00047749		 0.00010304		-0.00010108
O		8.24258194		0.71705635		1.80427653		 0.00047568		-0.00010285		-0.00010196
O		0.00154341		7.94304235		3.17991395		-0.00047568		 0.00010285		 0.00010196
O		5.89511547		5.04710670		0.68781771		-0.00066866		-0.00009365		 0.00003328
O		2.34900888		3.61299400		4.29637278		 0.00066866		 0.00009365		-0.00003328
O		3.23476357		5.04710670		1.80427653		 0.00066680		-0.00009338		-0.00003432
O		5.00936078		3.61299400		3.17991395		-0.00066680		 0.00009338		 0.00003432
O		3.07852167		2.23170777		1.58447442		-0.00020934		 0.00021035		 0.00009919
O		5.16560267		6.42839293		3.39971707		 0.00020934		-0.00021035		-0.00009919
O		6.05135737		2.23170777		0.90762083		 0.00020778		 0.00021335		-0.00009968
O		2.19276698		6.42839293		4.07656966		-0.00020778		-0.00021335		 0.00009968
O		8.08634004		6.56175712		1.58447442		-0.00043052		-0.00012059		 0.00007128
O		0.15778631		2.09834158		3.39971707		 0.00043052		 0.00012059		-0.00007128
O		1.04354100		6.56175712		0.90762083		 0.00042890		-0.00011750		-0.00007181
O		7.20058435		2.09834158		4.07656966		-0.00042890		 0.00011750		 0.00007181
O		3.50283404		0.05629087		0.12859174		-0.00040917		-0.00019704		-0.00020489
O		4.74129031		8.60380883		4.85559875		 0.00040917		 0.00019704		 0.00020489
O		5.62704500		0.05629087		2.36350351		 0.00040954		-0.00019637		 0.00020447
O		2.61708035		8.60380883		2.62068798		-0.00040954		 0.00019637		-0.00020447
O		8.51065141		4.38634122		0.12859174		-0.00043303		-0.00018592		-0.00025898
O		-0.26652706		4.27375848		4.85559875		 0.00043303		 0.00018592		 0.00025898
O		0.61922763		4.38634122		2.36350351		 0.00043349		-0.00018511		 0.00025839
O		7.62489671		4.27375848		2.62068798		-0.00043349		 0.00018511		-0.00025839
