# total energy = -11146.0148255 eV

CRYSTAL
PRIMVEC
		7.44099980		0.00000000		0.00000000
		0.00000000		4.40999782		0.00000000
		0.00000000		0.00000000		9.12119987
PRIMECORD
   12 1
Ca		0.14547229		1.10250020		6.20852691		 0.00076268		0.00000000		-0.00041284
Ca		7.29552751		3.30749985		2.91267296		-0.00076268		0.00000000		 0.00041284
Ca		3.57502761		3.30749985		1.64792697		-0.00076268		0.00000000		-0.00041284
Ca		3.86597219		1.10250020		7.47327216		 0.00076268		0.00000000		 0.00041284
Si		2.01346014		1.10250020		3.51713514		 0.00038848		0.00000000		-0.00093460
Si		5.42753966		3.30749985		5.60406473		-0.00038848		0.00000000		 0.00093460
Si		1.70703976		3.30749985		8.07773359		-0.00038848		0.00000000		-0.00093460
Si		5.73396003		1.10250020		1.04346480		 0.00038848		0.00000000		 0.00093460
Mg		1.07254571		1.10250020		0.58211462		 0.00026998		0.00000000		 0.00026198
Mg		6.36845409		3.30749985		8.53908451		-0.00026998		0.00000000		-0.00026198
Mg		2.64795419		3.30749985		5.14271456		-0.00026998		0.00000000		 0.00026198
Mg		4.79304561		1.10250020		3.97848457		 0.00026998		0.00000000		-0.00026198
