# total energy = -18273.9414771 eV

CRYSTAL
PRIMVEC
		5.33600010		0.00000000		0.00000000
		-2.66800005		4.62110949		0.00000000
		0.00000000		0.00000000		14.61400229
PRIMECORD
   28 1
Mg		1.77155203		0.00000000		3.19754310		 0.00769404		 0.00002070		 0.00686355
Mg		-0.88577602		1.53420888		3.19754310		-0.00383046		 0.00665331		 0.00686439
Mg		1.78222403		3.08690220		3.19754310		-0.00386480		-0.00667365		 0.00686371
Mg		3.56444807		0.00000000		10.50454425		-0.00768859		 0.00003515		 0.00683354
Mg		-1.78222403		3.08690220		10.50454425		 0.00387457		-0.00668493		 0.00683224
Mg		0.88577602		1.53420888		10.50454425		 0.00381277		 0.00664981		 0.00683279
Si		0.00000000		3.08074126		0.42672900		-0.00000461		 0.00000287		 0.00189604
Si		2.66800005		1.54036983		7.73372908		-0.00000104		-0.00000091		 0.00189437
Si		0.00000000		3.08074126		7.73372908		-0.00000146		 0.00000100		 0.00189528
Si		2.66800005		1.54037090		0.42672900		 0.00000330		-0.00000187		 0.00189773
O		0.00000000		3.08074126		2.05472822		-0.00000134		-0.00000103		-0.02740177
O		2.66800005		1.54036983		9.36172830		-0.00000236		-0.00000154		-0.02739292
O		0.00000000		3.08074126		9.36172830		 0.00000151		 0.00000170		-0.02739445
O		2.66800005		1.54037090		2.05472822		 0.00000094		 0.00000024		-0.02740399
O		2.63598405		0.00000000		14.48247416		 0.00138767		-0.00000075		 0.01570160
O		-1.31799202		2.28282889		14.48247416		-0.00069381		 0.00120257		 0.01570320
O		1.35000803		2.33828327		14.48247416		-0.00069263		-0.00120231		 0.01569897
O		2.70001605		0.00000000		7.17547408		-0.00138839		 0.00000059		 0.01569997
O		-1.35000803		2.33828327		7.17547408		 0.00069555		-0.00120141		 0.01569886
O		1.31799202		2.28282889		7.17547408		 0.00069481		 0.00120144		 0.01569928
O		3.55733305		0.00000000		4.17814304		 0.00553786		 0.00000024		-0.02040995
O		-1.77866706		3.08074126		4.17814304		-0.00277172		 0.00480089		-0.02040238
O		0.88933299		1.54036983		4.17814304		-0.00276702		-0.00479235		-0.02041465
O		1.77866706		0.00000000		11.48514312		-0.00554414		-0.00000029		-0.02037970
O		-0.88933299		1.54036983		11.48514312		 0.00276595		-0.00479162		-0.02039653
O		1.77866706		3.08074126		11.48514312		 0.00277375		 0.00480504		-0.02036638
O		0.00000000		0.00000000		2.10441599		 0.00000286		-0.00000960		 0.04453938
O		0.00000000		0.00000000		9.41141607		 0.00000677		-0.00001329		 0.04454786
