# total energy = -21541.0996531 eV	

CRYSTAL	
PRIMVEC	
		5.52571603		-0.00027479		-0.01260425	
		-0.00013999		9.56190646		-0.00529368	
		-0.10435965		-0.06479444		12.44197984	
PRIMCOORD
   42 1	
Mg		-0.00005237		0.00000000		-0.00002178		 0.00003017		-0.00002414		 0.00002034	
Mg		2.76283106		4.78081687		-0.00889504		-0.00001873		 0.00002170		 0.00000037	
Mg		2.76261381		1.58668357		-0.00680609		 0.00008193		-0.00044287		-0.00009870	
Mg		2.76294253		7.97496469		-0.01106384		-0.00008431		 0.00041768		 0.00011224	
Mg		-0.00027946		6.36777368		-0.00319902		 0.00006794		-0.00039360		-0.00008448	
Mg		0.00017732		3.19411982		-0.00218487		-0.00009615		 0.00041828		 0.00012787	
Si		4.61135376		1.58876942		2.70981388		 0.00009073		 0.00022952		-0.00013952	
Si		0.80985848		7.90805070		9.71399738		-0.00008743		-0.00018326		 0.00079942	
Si		1.84842264		6.36989063		2.71351894		 0.00008920		 0.00016940		-0.00026518	
Si		3.57276679		3.12697511		9.71054897		-0.00008303		-0.00021154		 0.00033911	
Si		1.84862847		3.18006642		2.71498158		 0.00004648		 0.00004694		 0.00057324	
Si		3.57256251		6.31677080		9.70887843		-0.00003881		-0.00009621		 0.00005512	
Si		4.61141650		7.96087500		2.70623534		 0.00004589		 0.00010784		 0.00005511	
Si		0.80979523		1.53595860		9.71781703		-0.00004568		-0.00005303		-0.00001335	
O		1.84557878		3.17973667		1.07896152		 0.00027729		-0.00008892		-0.00020230	
O		3.57560081		6.31706686		11.34536460		-0.00028272		 0.00009226		-0.00033992	
O		4.60833673		7.96059242		1.06980568		 0.00028846		-0.00009803		 0.00023820	
O		0.81288070		1.53626502		11.35426586		-0.00028919		 0.00010073		-0.00025568	
O		4.60812570		1.59448566		1.07318047		 0.00031543		 0.00042279		 0.00038750	
O		0.81309380		7.90233809		11.35111972		-0.00031300		-0.00041173		-0.00094402	
O		1.84521947		6.37560688		1.07680724		 0.00030384		 0.00040212		 0.00050768	
O		3.57595907		3.12126768		11.34731201		-0.00031209		-0.00042455		-0.00056378	
O		1.83628398		-0.00166639		1.01384251		 0.00013385		 0.00011225		-0.00219881	
O		3.58513565		-0.06340647		11.41555694		-0.00014814		-0.00008024		 0.00203566	
O		4.59893772		4.77914944		1.00476030		 0.00016409		 0.00008106		-0.00164772	
O		0.82211950		4.71765616		11.41936102		-0.00010393		-0.00009966		 0.00146511	
O		1.86297948		4.77532928		3.22937646		 0.00009169		 0.00004396		-0.00083111	
O		3.55822291		4.72151209		9.19471012		-0.00009612		-0.00003409		 0.00078663	
O		4.62589298		-0.00576031		3.22571495		 0.00009551		 0.00002555		-0.00080556	
O		0.79545355		-0.05930374		9.20367775		-0.00009600		-0.00003783		 0.00075538	
O		3.22396820		2.37193033		3.22950038		 0.00004384		 0.00042415		-0.00029070	
O		2.19725079		7.12489912		9.19460383		-0.00005759		-0.00041793		 0.00019926	
O		0.46101737		7.15303807		3.23315514		 0.00008420		 0.00040126		-0.00025061	
O		4.96016999		2.34381316		9.19096358		-0.00006951		-0.00041090		 0.00024098	
O		0.46279213		2.39464597		3.23552719		-0.00002942		 0.00024142		-0.00019366	
O		4.95840353		7.10218140		9.18864857		 0.00003572		-0.00023751		 0.00008783	
O		3.22559570		7.17548151		3.22652275		-0.00006821		 0.00022015		-0.00012812	
O		2.19561913		2.32137231		9.19752236		 0.00004945		-0.00022941		 0.00013344	
H		1.82617051		-0.00382120		1.97686309		 0.00023829		 0.00021015		 0.00213732	
H		3.59516409		9.50068849		10.44716231		-0.00024387		-0.00020862		-0.00198617	
H		4.58882373		4.77693449		1.96807123		 0.00024614		 0.00021050		 0.00161485	
H		0.83250984		4.71990688		10.45595625		-0.00025619		-0.00021562		-0.00143327	
