# total energy = -21542.3310123 eV	

CRYSTAL	
PRIMVEC	
		5.24102386		0.00147767		0.00878824	
		0.00337530		9.03023116		0.04211613	
		-0.13665059		-0.07287755		8.94260286	
PRIMCOORD
   42 1	
Mg		0.00003370		0.00000570		-0.00000570		-0.00000989		-0.00001371		-0.00000214	
Mg		2.62212336		4.51584353		0.02546203		 0.00002339		 0.00001248		 0.00001654	
Mg		2.62147993		1.49937102		0.00919835		-0.00012080		-0.00004160		 0.00021753	
Mg		2.62293997		7.53235647		0.04169149		 0.00011922		 0.00002599		-0.00021072	
Mg		0.00260121		6.01367933		0.02586645		-0.00012326		 0.00000005		 0.00022032	
Mg		0.00069684		3.01651450		0.01626005		 0.00011456		 0.00001620		-0.00020787	
Si		4.36565750		1.48855086		2.73337310		-0.00024211		-0.00007686		 0.00011067	
Si		0.74208900		7.47033434		6.26012998		 0.00022866		-0.00007159		-0.00011532	
Si		1.74685033		6.00284880		2.75003290		-0.00023841		 0.00015932		 0.00012011	
Si		3.36091017		2.95593685		6.24346188		 0.00024924		-0.00001106		-0.00012120	
Si		1.74631993		3.00311905		2.73540813		-0.00026425		-0.00016284		 0.00014520	
Si		3.36143746		5.95568475		6.25808146		 0.00026022		 0.00023542		-0.00013255	
Si		4.36851381		7.51898072		2.76087379		-0.00026384		-0.00014530		 0.00012174	
Si		0.73923840		1.43988374		6.23263446		 0.00026185		 0.00007000		-0.00013985	
O		1.74579264		3.01406468		1.11007862		-0.00013135		-0.00010297		 0.00004884	
O		3.36187817		5.94475675		7.88341460		 0.00014178		 0.00008527		-0.00002913	
O		4.36808917		7.52991339		1.13554324		-0.00015532		-0.00009737		 0.00001916	
O		0.73968688		1.42891374		7.85796087		 0.00014811		 0.00010974		-0.00003732	
O		4.36341093		1.49292994		1.10777242		-0.00017664		 0.00014757		 0.00005982	
O		0.74435839		7.46587645		7.88572651		 0.00016908		-0.00013986		-0.00005772	
O		1.74449177		6.00732795		1.12443118		-0.00015277		 0.00013102		 0.00007030	
O		3.36318422		2.95152459		7.86906619		 0.00016343		-0.00013320		-0.00006808	
O		1.74506884		-0.00191682		1.07720180		-0.00005575		-0.00045448		-0.00008599	
O		3.35937650		-0.06947113		7.87412604		 0.00003316		 0.00046184		 0.00024982	
O		4.36705066		4.51389715		1.10276235		 0.00001309		-0.00044926		-0.00032748	
O		0.74052164		4.44489369		7.89094397		 0.00003762		 0.00045154		-0.00026188	
O		1.45020356		4.50013047		3.31762124		 0.00041675		-0.00013847		-0.00011841	
O		3.65749627		4.45875318		5.67584036		-0.00041617		-0.00002863		 0.00013116	
O		4.06909887		-0.01429086		3.30100551		 0.00042112		 0.00002177		-0.00014966	
O		1.03529099		-0.05715568		5.65039284		-0.00041775		 0.00014487		 0.00014275	
O		3.20812500		2.50672164		3.26390204		-0.00016585		 0.00027346		-0.00052376	
O		1.89963498		6.45208786		5.72960362		 0.00010937		-0.00024202		 0.00053520	
O		0.58927221		7.02113728		3.28055406		-0.00003314		 0.00018638		-0.00053406	
O		4.51846340		1.93770748		5.71293864		 0.00008702		-0.00021618		 0.00052874	
O		0.58794490		1.97899871		3.25198634		-0.00006858		-0.00032578		 0.00022971	
O		4.51979020		6.97982946		5.74150222		 0.00010224		 0.00034012		-0.00020775	
O		3.21018285		6.49487231		3.27744785		-0.00017259		-0.00039241		 0.00021231	
O		1.89758336		2.46397038		5.71605833		 0.00013554		 0.00037723		-0.00022907	
H		1.73448148		-0.00326591		2.04013010		 0.00005382		-0.00012095		-0.00020768	
H		3.37302601		8.96203445		6.95339372		-0.00003513		 0.00011982		 0.00005735	
H		4.35750596		4.51279331		2.06557865		-0.00000479		-0.00012894		 0.00001174	
H		0.75081035		4.44619455		6.92783991		-0.00004085		 0.00012334		 0.00051864	
