# total energy = -24709.5536503 eV

CRYSTAL
PRIMVEC
		9.68100001		0.00000000		0.00000000
		0.00000000		8.73899998		1.04868464
		1.61441324		0.59341626		4.94515161
PRIMECORD
   40 1
Si		2.35750744		3.70226708		1.42393279		-0.00004909		 0.00002268		-0.00014359
Si		8.93790581		5.63015110		4.56989379		 0.00004909		-0.00002268		 0.00014359
Si		3.29020015		8.12992180		2.43289823		 0.00005068		 0.00006688		-0.00026613
Si		8.00521310		1.20249637		3.56092932		-0.00005068		-0.00006688		 0.00026613
Si		8.13069919		3.76042181		1.90855784		-0.00009282		 0.00022174		 0.00000534
Si		3.16471309		5.57199636		4.08526873		 0.00009282		-0.00022174		-0.00000534
Si		7.19800744		8.07176707		1.94827318		 0.00003808		 0.00013761		-0.00007174
Si		4.09740580		1.26065111		4.04555437		-0.00003808		-0.00013761		 0.00007174
O		4.03384133		3.72972239		0.93496000		-0.00003146		 0.00040973		 0.00008903
O		7.26157192		5.60269578		5.05886561		 0.00003146		-0.00040973		-0.00008903
O		1.61386530		8.27724726		2.94284394		 0.00001615		 0.00017120		-0.00023177
O		9.68154698		1.05517091		3.05098264		-0.00001615		-0.00017120		 0.00023177
O		8.60171275		2.27910296		1.04844843		 0.00030822		 0.00024783		 0.00007832
O		2.69369856		7.05331425		4.94537912		-0.00030822		-0.00024783		-0.00007832
O		6.72699291		6.75660612		2.47280525		 0.00017895		 0.00046005		 0.00014371
O		4.56842034		2.57581205		3.52102230		-0.00017895		-0.00046005		-0.00014371
O		2.98584210		4.84585747		5.21174312		 0.00031632		 0.00029831		-0.00011086
O		8.30957115		4.48656071		0.78208443		-0.00031632		-0.00029831		 0.00011086
O		4.27627680		8.97798999		3.75802383		-0.00019623		 0.00004275		 0.00021834
O		7.01913548		0.35442819		2.23580275		 0.00019623		-0.00004275		-0.00021834
O		9.11677680		4.60849000		3.23368441		-0.00032453		 0.00013512		 0.00058640
O		2.17863644		4.72392818		2.76014313		 0.00032453		-0.00013512		-0.00058640
O		7.82634210		9.21535746		5.73608254		 0.00013758		 0.00002510		 0.00000643
O		3.46907115		0.11706072		0.25774404		-0.00013758		-0.00002510		-0.00000643
O		1.88649291		2.38710516		1.94846486		 0.00021406		 0.00018076		 0.00023092
O		9.40892034		6.94531204		4.04536172		-0.00021406		-0.00018076		-0.00023092
O		3.76121275		6.64860392		1.57278785		-0.00004676		 0.00005456		-0.00037860
O		7.53419856		2.68381426		4.42103776		 0.00004676		-0.00005456		 0.00037860
O		6.45436530		3.90774727		2.41850355		-0.00019579		-0.00017502		-0.00013546
O		4.84104795		5.42467091		3.57532303		 0.00019579		 0.00017502		 0.00013546
O		8.87434133		8.09922238		1.45930039		 0.00011943		-0.00031158		-0.00004444
O		2.42107095		1.23319579		4.53452619		-0.00011943		 0.00031158		 0.00004444
Mg		0.40360283		0.94360320		1.33171739		-0.00038776		 0.00013162		-0.00074484
Mg		1.21081042		8.38881401		4.66211015		 0.00038776		-0.00013162		 0.00074484
Mg		5.24410283		5.31310416		1.85605681		 0.00014258		 0.00017355		-0.00058480
Mg		6.05131042		4.01931402		4.13776977		-0.00014258		-0.00017355		 0.00058480
Mg		0.32288265		6.14859382		1.71261924		-0.00019116		-0.00003182		 0.00021689
Mg		1.29152963		3.18382436		4.28120830		 0.00019116		 0.00003182		-0.00021689
Mg		5.32482398		1.83843545		1.68279305		-0.00020857		-0.00019535		-0.00006755
Mg		5.97058927		7.49398272		4.31103353		 0.00020857		 0.00019535		 0.00006755
