# total energy = -49440.6389032 eV	

CRYSTAL	
PRIMVEC	
		14.02400496		-2.24384704		0.00000000	
		-0.81744596		5.10900528		0.00000000	
		0.00000000		0.00000000		8.73299628	
PRIMCOORD
   70 1	
Mg		2.15951619		1.28683153		0.04628553		 0.00273947		-0.00060807		-0.00552322	
Mg		11.04704423		1.57832813		0.04628553		-0.00273947		 0.00060807		-0.00552322	
Mg		9.29887277		-0.63106964		4.41278509		 0.00407932		-0.00153744		-0.00743110	
Mg		3.90768623		3.49622930		4.41278509		-0.00407932		 0.00153744		-0.00743110	
Mg		1.80604329		3.87182098		1.53002160		-0.00456896		 0.00497372		 0.00103192	
Mg		11.40051571		-1.00666133		1.53002160		 0.00456896		-0.00497372		 0.00103192	
Mg		8.95831692		1.87319636		5.89652115		-0.00372745		 0.00817961		-0.00313505	
Mg		4.24824350		0.99196329		5.89652115		 0.00372745		-0.00817961		-0.00313505	
Mg		4.26085947		1.04122138		2.83123871		-0.00583808		-0.00345128		-0.00080902	
Mg		8.94569953		1.82393970		2.83123871		 0.00583808		 0.00345128		-0.00080902	
Mg		11.42997144		-1.06264850		7.19773827		-0.00121741		 0.00089044		 0.00158133	
Mg		1.77658756		3.92780957		7.19773827		 0.00121741		-0.00089044		 0.00158133	
Mg		-0.40872014		2.55449980		7.23616421		0.00000000		0.00000000		 0.00615762	
Mg		7.01199964		-1.12192068		2.86966465		0.00000000		0.00000000		 0.00443418	
Mg		-0.40872014		2.55449980		1.63307117		0.00000000		0.00000000		-0.00406303	
Mg		7.01199964		-1.12192068		5.99957073		0.00000000		0.00000000		-0.00539250	
Mg		0.00000000		0.00000000		5.78561341		0.00000000		0.00000000		 0.00690668	
Mg		6.60327950		1.43258054		1.41911243		0.00000000		0.00000000		-0.00894141	
Mg		0.00000000		0.00000000		3.01725144		0.00000000		0.00000000		 0.00522015	
Mg		6.60327950		1.43258054		7.38375100		0.00000000		0.00000000		 0.00637358	
Si		0.00000000		0.00000000		0.06724397		0.00000000		0.00000000		 0.00503362	
Si		6.60327950		1.43258054		4.43374353		0.00000000		0.00000000		-0.00086026	
Si		5.26991248		-0.77299253		0.04453864		-0.00474162		-0.00010671		-0.00442580	
Si		7.93664652		3.63815361		0.04453864		 0.00474162		 0.00010671		-0.00442580	
Si		11.89624527		0.51551346		4.41103820		 0.00030268		 0.00151095		 0.00185404	
Si		1.31031657		2.34964762		4.41103820		-0.00030268		-0.00151095		 0.00185404	
O		5.24476576		2.68939251		8.67710852		 0.00501651		-0.00621320		-0.00957348	
O		7.96179324		0.17576856		8.67710852		-0.00501651		 0.00621320		-0.00957348	
O		12.18940922		1.98845430		4.31060896		 0.00308798		-0.00540693		 0.00394911	
O		1.01715120		0.87670536		4.31060896		-0.00308798		 0.00540693		 0.00394911	
O		0.53151243		3.36535443		0.04366519		 0.00062643		 0.00031225		-0.00131646	
O		12.67504941		-0.50019478		0.04366519		-0.00062643		-0.00031225		-0.00131646	
O		7.45048653		2.82484054		4.41016475		-0.00022691		-0.00365786		-0.00201979	
O		5.75607247		0.04032054		4.41016475		 0.00022691		 0.00365786		-0.00201979	
O		3.48100435		-0.44744007		3.01375766		 0.00276935		-0.00072126		 0.00208593	
O		9.72555465		3.31259972		3.01375766		-0.00276935		 0.00072126		 0.00208593	
O		10.12025136		0.76034390		7.38025722		-0.00076368		 0.00451515		 0.00372415	
O		3.08630764		2.10481576		7.38025722		 0.00076368		-0.00451515		 0.00372415	
O		3.16039573		2.04318030		1.41474662		 0.00539969		 0.00858214		-0.00574818	
O		10.04616327		0.82197935		1.41474662		-0.00539969		-0.00858214		-0.00574818	
O		9.78329439		3.35314323		5.78124618		-0.00320410		 0.00082251		 0.00266198	
O		3.42326603		-0.48798358		5.78124618		 0.00320410		-0.00082251		 0.00266198	
O		0.94811347		0.56516353		1.33702129		-0.00038425		-0.00663023		 0.00619063	
O		12.25844837		2.29999612		1.33702129		 0.00038425		 0.00663023		 0.00619063	
O		7.78681433		0.52635129		5.70352227		-0.00649106		 0.00022873		 0.00157089	
O		5.41974467		2.33880837		5.70352227		 0.00649106		-0.00022873		 0.00157089	
O		5.49863174		2.34112051		3.16047243		 0.00969401		 0.00209995		-0.00482220	
O		7.70792726		0.52403914		3.16047243		-0.00969401		-0.00209995		-0.00482220	
O		12.34223811		2.27165529		7.52697199		 0.00109639		 0.00004886		 0.00163522	
O		0.86432089		0.59350579		7.52697199		-0.00109639		-0.00004886		 0.00163522	
O		5.68787978		-0.14839491		1.39640709		 0.00049481		 0.00480803		 0.00034203	
O		7.51867922		3.01355456		1.39640709		-0.00049481		-0.00480803		 0.00034203	
O		12.54129573		-0.27916894		5.76290665		-0.00178263		 0.00019834		 0.00473349	
O		0.66526469		3.14432859		5.76290665		 0.00178263		-0.00019834		 0.00473349	
O		0.68678697		3.30018827		3.03821130		-0.00152635		 0.00006144		-0.00037467	
O		12.51977345		-0.43502861		3.03821130		 0.00152635		-0.00006144		-0.00037467	
O		7.59252020		2.84243728		7.40471086		 0.00063053		-0.00528472		-0.00471611	
O		5.61404022		0.02272238		7.40471086		-0.00063053		 0.00528472		-0.00471611	
O		3.63951135		-0.55842593		0.06113127		-0.00584299		 0.00602659		 0.00918473	
O		9.56704907		3.42358558		0.06113127		 0.00584299		-0.00602659		 0.00918473	
O		10.25063766		0.82510672		4.42763083		-0.00031043		-0.00124305		-0.00381889	
O		2.95592134		2.04005294		4.42763083		 0.00031043		 0.00124305		-0.00381889	
H		3.71673533		2.39224763		0.87329963		-0.00226018		-0.00031374		 0.00439211	
H		9.48982367		0.47291202		0.87329963		 0.00226018		 0.00031374		 0.00439211	
H		10.48350402		2.80302854		5.23980061		 0.00473596		 0.00370916		 0.00079513	
H		2.72305640		0.06213254		5.23980061		-0.00473596		-0.00370916		 0.00079513	
H		3.63934092		0.31378296		3.92985045		-0.00123292		 0.00213123		 0.00240804	
H		9.56721950		2.55137670		3.92985045		 0.00123292		-0.00213123		 0.00240804	
H		10.53689926		-0.09287642		8.29635001		 0.00214451		 0.00161460		-0.00186109	
H		2.66966116		2.95803749		8.29635001		-0.00214451		-0.00161460		-0.00186109	
