# total energy = -14248.0288086 eV

CRYSTAL
PRIMVEC
		7.86000253		0.00000000		1.25760391
		0.00000000		7.86000253		0.00000000
		0.80383775		0.00000000		5.02399989
PRIMECORD
   24 1
O		1.30948621		2.82496295		1.45461003		-0.00046570		 0.00010075		 0.00005475
O		6.95941052		5.03503798		2.35859776		-0.00025291		-0.00029754		-0.00030062
O		3.42435361		6.75496263		4.19818943		 0.00046570		 0.00010075		-0.00005475
O		5.63442864		1.10503672		4.55180163		 0.00025291		-0.00029754		 0.00030062
O		1.28466383		1.46384598		4.06477473		-0.00029425		 0.00005368		 0.00048152
O		7.84273337		6.39615336		5.11406538		-0.00006757		 0.00060388		 0.00005391
O		1.63398719		7.20903444		1.29759481		-0.00035810		-0.00017733		-0.00005556
O		6.56629378		0.65096490		2.08676472		-0.00004138		-0.00036934		 0.00015687
O		3.44917598		5.39384645		1.58802552		 0.00029425		 0.00005368		-0.00048152
O		4.75110579		2.46615369		1.79633400		 0.00006757		 0.00060388		-0.00005391
O		3.09985262		3.27903477		4.35520465		 0.00035810		-0.00017733		 0.00005556
O		6.02754538		4.58096458		4.82363546		 0.00004138		-0.00036934		-0.00015687
O		0.65858578		3.92999967		4.11616272		-0.00019437		-0.00013798		 0.00001600
O		4.07525403		0.00000000		1.53663674		 0.00019437		-0.00013798		-0.00001600
Ca		3.01436173		1.32313676		2.96396476		 0.00024920		 0.00039992		-0.00015879
Ca		5.66063446		6.53686258		3.38736919		-0.00013659		-0.00024704		 0.00036360
Ca		1.71947809		5.25313644		2.68883470		-0.00024920		 0.00039992		 0.00015879
Ca		6.93320470		2.60686291		3.52303179		 0.00013659		-0.00024704		-0.00036360
Si		1.85158815		2.83030648		4.87529966		-0.00012030		 0.00008810		 0.00024588
Si		7.51220350		5.02969286		5.78099799		 0.00007339		 0.00020341		-0.00055345
Si		2.88225167		6.76030775		0.77749980		 0.00012030		 0.00008810		-0.00024588
Si		5.08163645		1.09969319		1.12940219		-0.00007339		 0.00020341		 0.00055345
Mg		0.00000000		0.00000000		0.00000000		-0.00025164		-0.00022050		-0.00085775
Mg		3.92999967		3.92999967		0.62880036		 0.00025164		-0.00022050		 0.00085775
