# total energy = -18533.7573739 eV	

CRYSTAL	
PRIMVEC	
		4.68600010		0.18743982		0.00000000	
		-2.18067149		3.96447311		0.00000000	
		0.00000000		0.00000000		13.29100152	
PRIMCOORD
   30 1	
O		1.43077293		0.18931618		3.21110602		 0.00054031		-0.00005948		-0.00085515	
O		1.07455521		3.96259909		10.07989362		-0.00054031		 0.00005948		 0.00085515	
O		3.90542075		1.32270193		3.21110602		 0.00065814		-0.00023246		-0.00022515	
O		-1.40009308		2.82921287		10.07989362		-0.00065814		 0.00023246		 0.00022515	
O		1.85513409		2.82733698		3.21110602		 0.00067647		-0.00012827		 0.00034670	
O		0.65019406		1.32457783		10.07989362		-0.00067647		 0.00012827		-0.00034670	
O		3.82788188		1.63576788		7.64143893		 0.00053540		-0.00005338		-0.00085506	
O		0.96633601		1.25713504		1.21922782		-0.00053992		 0.00006365		 0.00084547	
O		1.61653007		2.58171287		7.64143893		 0.00065400		-0.00023093		-0.00022446	
O		3.17768782		0.31119005		1.21922782		-0.00065282		 0.00023030		 0.00021976	
O		1.74691489		0.12187387		7.64143893		 0.00067802		-0.00012597		 0.00034494	
O		3.04730300		2.77103000		1.21922782		-0.00067996		 0.00012657		-0.00035342	
O		1.53899213		2.89477976		12.07177277		 0.00053992		-0.00006365		-0.00084547	
O		-1.32255420		2.51614692		5.64956072		-0.00053540		 0.00005338		 0.00085506	
O		-0.67236108		3.84072475		12.07177277		 0.00065282		-0.00023030		-0.00021976	
O		0.88879808		1.57020193		5.64956072		-0.00065400		 0.00023093		 0.00022446	
O		-0.54197486		1.38088481		12.07177277		 0.00067996		-0.00012657		 0.00035342	
O		0.75841279		4.03004094		5.64956072		-0.00067802		 0.00012597		-0.00034494	
Mg		0.00000000		0.00000000		4.76615304		 0.00012262		-0.00060055		 0.00087169	
Mg		0.00000000		0.00000000		8.52484661		-0.00012262		 0.00060055		-0.00087169	
Mg		2.39710895		1.44645217		9.19648594		 0.00012087		-0.00059203		 0.00086601	
Mg		2.39710895		1.44645217		12.95518092		-0.00011531		 0.00057145		-0.00085090	
Mg		0.10821920		2.70546311		0.33581920		 0.00011531		-0.00057145		 0.00085090	
Mg		0.10821920		2.70546311		4.09451371		-0.00012087		 0.00059203		-0.00086601	
Si		0.00000000		0.00000000		2.08668708		 0.00020305		 0.00017874		 0.00024118	
Si		0.00000000		0.00000000		11.20431257		-0.00020305		-0.00017874		-0.00024118	
Si		2.39710895		1.44645217		6.51702092		 0.00019892		 0.00017747		 0.00024095	
Si		2.39710895		1.44645217		2.34364583		-0.00020110		-0.00017498		-0.00024343	
Si		0.10821920		2.70546311		10.94735382		 0.00020110		 0.00017498		 0.00024343	
Si		0.10821920		2.70546311		6.77397967		-0.00019892		-0.00017747		-0.00024095	
