# total energy = -18522.7241467 eV	

CRYSTAL	
PRIMVEC	
		4.68600185		-0.74976238		0.00000000	
		-2.99231078		4.43307551		0.00000000	
		0.00000000		0.00000000		13.29100239	
PRIMCOORD
   30 1	
O		1.40431423		-0.09578001		3.21110628		-0.00012559		 0.00067919		 0.00050511	
O		0.28937494		3.77909503		10.07989421		 0.00012559		-0.00067919		-0.00050511	
O		3.67174999		0.55096390		3.21110628		 0.00019177		 0.00010698		-0.00040743	
O		-1.97806082		3.13235112		10.07989421		-0.00019177		-0.00010698		 0.00040743	
O		1.30362490		2.47837017		3.21110628		 0.00019665		-0.00015048		-0.00029173	
O		0.39006380		1.20494485		10.07989421		-0.00019665		 0.00015048		 0.00029173	
O		3.53087585		0.88207214		7.64143930		-0.00008414		 0.00072386		 0.00045369	
O		0.72224881		1.07363120		1.21922817		 0.00010939		-0.00068044		-0.00049053	
O		1.11231308		2.27857606		7.64143930		 0.00019681		 0.00011309		-0.00041452	
O		3.14081300		-0.32287319		1.21922817		-0.00020429		-0.00009835		 0.00043609	
O		1.73649924		-0.22709318		7.64143930		 0.00014650		-0.00018835		-0.00024343	
O		2.51662589		2.18279605		1.21922817		-0.00019063		 0.00012742		 0.00028453	
O		0.97143894		2.60968287		12.07177327		-0.00010939		 0.00068044		 0.00049053	
O		-1.83718810		2.80124288		5.64956119		 0.00008414		-0.00072386		-0.00045369	
O		-1.44712383		4.00618821		12.07177327		 0.00020429		 0.00009835		-0.00043609	
O		0.58137609		1.40473896		5.64956119		-0.00019681		-0.00011309		 0.00041452	
O		-0.82293814		1.50051897		12.07177327		 0.00019063		-0.00012742		-0.00028453	
O		-0.04281007		3.91040820		5.64956119		-0.00014650		 0.00018835		 0.00024343	
Mg		0.00000000		0.00000000		4.76615317		 0.00020329		 0.00028330		-0.00011925	
Mg		0.00000000		0.00000000		8.52484733		-0.00020329		-0.00028330		 0.00011925	
Mg		2.12656304		0.97785214		9.19648619		 0.00017850		 0.00028337		-0.00010669	
Mg		2.12656304		0.97785214		12.95518130		-0.00020428		-0.00031390		 0.00013828	
Mg		-0.43287387		2.70546288		0.33581919		 0.00020428		 0.00031390		-0.00013828	
Mg		-0.43287387		2.70546288		4.09451430		-0.00017850		-0.00028337		 0.00010669	
Si		0.00000000		0.00000000		2.08668717		 0.00023991		-0.00007968		 0.00019541	
Si		0.00000000		0.00000000		11.20431332		-0.00023991		 0.00007968		-0.00019541	
Si		2.12656304		0.97785214		6.51702114		 0.00031743		-0.00000796		 0.00013374	
Si		2.12656304		0.97785214		2.34364585		-0.00025884		 0.00011405		-0.00019274	
Si		-0.43287387		2.70546288		10.94735416		 0.00025884		-0.00011405		 0.00019274	
Si		-0.43287387		2.70546288		6.77398030		-0.00031743		 0.00000796		-0.00013374	
