# total energy = -18521.3937698 eV	

CRYSTAL	
PRIMVEC	
		4.68600185		0.74976238		0.00000000	
		-1.69369107		3.68331312		0.00000000	
		0.00000000		0.00000000		13.29100239	
PRIMCOORD
   30 1	
O		1.44664880		0.36037389		3.21110628		 0.00059509		 0.00054105		 0.00023634	
O		1.54566198		4.07270114		10.07989421		-0.00059509		-0.00054105		-0.00023634	
O		4.04562321		1.78574388		3.21110628		 0.00025049		-0.00024264		-0.00011619	
O		-1.05331196		2.64733115		10.07989421		-0.00025049		 0.00024264		 0.00011619	
O		2.18603919		3.03671728		3.21110628		 0.00039046		 0.00046295		 0.00028365	
O		0.80627206		1.39635823		10.07989421		-0.00039046		-0.00046295		-0.00028365	
O		4.00608618		2.08798604		7.64143930		 0.00057632		 0.00051875		 0.00022604	
O		1.11278811		1.36723684		1.21922817		-0.00058788		-0.00051589		-0.00021359	
O		1.91906017		2.76359602		7.64143930		 0.00024476		-0.00025721		-0.00016221	
O		3.19981412		0.69162686		1.21922817		-0.00024404		 0.00027246		 0.00017214	
O		1.75316485		0.33125298		7.64143930		 0.00038365		 0.00041427		 0.00023545	
O		3.36570897		3.12396991		1.21922817		-0.00042606		-0.00042513		-0.00018696	
O		1.87952314		3.06583724		12.07177327		 0.00058788		 0.00051589		 0.00021359	
O		-1.01377398		2.34508899		5.64956119		-0.00057632		-0.00051875		-0.00022604	
O		-0.20750192		3.74144722		12.07177327		 0.00024404		-0.00027246		-0.00017214	
O		1.07325108		1.66947901		5.64956119		-0.00024476		 0.00025721		 0.00016221	
O		-0.37339819		1.30910512		12.07177327		 0.00042606		 0.00042513		 0.00018696	
O		1.23914593		4.10182206		5.64956119		-0.00038365		-0.00041427		-0.00023545	
Mg		0.00000000		0.00000000		4.76615317		-0.00021501		-0.00008379		-0.00060527	
Mg		0.00000000		0.00000000		8.52484733		 0.00021501		 0.00008379		 0.00060527	
Mg		2.55943691		1.72761216		9.19648619		-0.00025124		-0.00014729		-0.00064725	
Mg		2.55943691		1.72761216		12.95518130		 0.00024379		 0.00007225		 0.00059997	
Mg		0.43287387		2.70546288		0.33581919		-0.00024379		-0.00007225		-0.00059997	
Mg		0.43287387		2.70546288		4.09451430		 0.00025124		 0.00014729		 0.00064725	
Si		0.00000000		0.00000000		2.08668717		-0.00002344		-0.00025302		-0.00065166	
Si		0.00000000		0.00000000		11.20431332		 0.00002344		 0.00025302		 0.00065166	
Si		2.55943691		1.72761216		6.51702114		-0.00003225		-0.00021805		-0.00063455	
Si		2.55943691		1.72761216		2.34364585		 0.00006004		 0.00024483		 0.00055001	
Si		0.43287387		2.70546288		10.94735416		-0.00006004		-0.00024483		-0.00055001	
Si		0.43287387		2.70546288		6.77398030		 0.00003225		 0.00021805		 0.00063455	
