# total energy = -20638.4067215 eV

CRYSTAL
PRIMVEC
		10.20140980		0.00000000		0.00000000
		0.00000000		5.98348390		0.23933528
		0.00000000		0.19021549		4.75533617
PRIMECORD
   28 1
Mg		0.00000000		0.00000000		0.00000000		0.00000000		0.00000000		0.00000000
Mg		5.10070490		0.09510672		2.37767013		0.00000000		0.00000000		0.00000000
Mg		0.00000000		2.99173991		0.11966968		0.00000000		0.00000000		-0.00000000
Mg		5.10070490		3.08684663		2.49733980		0.00000000		0.00000000		-0.00000000
Mg		2.82885094		1.68446699		4.77475455		-0.00003250		-0.00007509		 0.00005445
Mg		7.37255886		4.48922729		0.21992505		 0.00003250		 0.00007509		-0.00005445
Mg		2.27185396		4.58110017		2.51675411		 0.00003250		-0.00007509		 0.00005445
Mg		7.92955584		1.59259411		2.47792448		-0.00003250		 0.00007509		-0.00005445
Si		0.95893252		1.57697677		2.08751245		-0.00025729		-0.00020984		 0.00001334
Si		9.24247830		4.59671649		2.90716716		 0.00025729		 0.00020984		-0.00001334
Si		4.14177340		4.66382340		4.58485123		 0.00025729		-0.00020984		 0.00001334
Si		6.05963742		1.50986986		0.40982838		-0.00025729		 0.00020984		-0.00001334
O		0.93444914		1.64143948		3.69909546		 0.00010231		-0.00078253		-0.00040666
O		9.26696066		4.53225276		1.29558312		-0.00010231		 0.00078253		 0.00040666
O		4.16625576		4.53807369		1.44109603		-0.00010231		-0.00078253		-0.00040666
O		6.03515404		1.63561958		3.55358255		 0.00010231		 0.00078253		 0.00040666
O		4.55901004		1.53792578		1.11124059		 0.00024095		 0.00076877		-0.00005213
O		5.64239976		4.63576647		3.88343902		-0.00024095		-0.00076877		 0.00005213
O		0.54169486		4.62477241		3.60858039		-0.00024095		 0.00076877		-0.00005213
O		9.65971596		1.54892086		1.38609921		 0.00024095		-0.00076877		 0.00005213
O		1.65976937		0.25149332		1.32897948		-0.00037462		 0.00053967		-0.00033524
O		8.54164042		5.92220097		3.66570013		 0.00037462		-0.00053967		 0.00033524
O		3.44093552		5.93277575		3.93009619		-0.00063979		 0.00038469		-0.00025080
O		6.76047529		0.24091649		1.06458342		 0.00063979		-0.00038469		 0.00025080
O		8.54164042		3.32776414		3.56192220		-0.00063979		-0.00038469		 0.00025080
O		1.65976937		2.84593014		1.43275740		 0.00063979		 0.00038469		-0.00025080
O		6.76047529		2.83535434		1.16836032		-0.00037462		-0.00053967		 0.00033524
O		3.44093552		3.33833995		3.82631928		 0.00037462		 0.00053967		-0.00033524
