# total energy = -20634.8459452 eV

CRYSTAL
PRIMVEC
		10.20140980		0.00000000		0.00000000
		0.00000000		5.98348390		-0.71801603
		0.00000000		-0.57063626		4.75533617
PRIMECORD
   28 1
Mg		0.00000000		0.00000000		0.00000000		-0.00000000		0.00000000		0.00000000
Mg		5.10070490		-0.28532017		2.37767013		0.00000000		-0.00000000		-0.00000000
Mg		0.00000000		2.99173991		-0.35900903		0.00000000		0.00000000		0.00000000
Mg		5.10070490		2.70641974		2.01866109		-0.00000000		-0.00000000		-0.00000000
Mg		2.82885094		0.93007987		4.53541520		-0.00000388		 0.00007846		-0.00009128
Mg		7.37255886		4.48275960		-0.49809301		 0.00000388		-0.00007846		 0.00009128
Mg		2.27185396		4.20713995		1.79873706		 0.00000388		 0.00007846		-0.00009128
Mg		7.92955584		1.20569850		2.23858614		-0.00000388		-0.00007846		 0.00009128
Si		0.95893252		1.25254848		1.84817309		 0.00035718		-0.00044595		 0.00023747
Si		9.24247830		4.16028998		2.18915011		-0.00035718		 0.00044595		-0.00023747
Si		4.14177340		3.95896822		3.86683418		-0.00035718		-0.00044595		 0.00023747
Si		6.05963742		1.45387126		0.17048902		 0.00035718		 0.00044595		-0.00023747
O		0.93444914		1.05915933		3.45975713		-0.00000429		-0.00047447		 0.00018216
O		9.26696066		4.35368116		0.57756506		 0.00000429		 0.00047447		-0.00018216
O		4.16625576		4.33621941		0.72307797		 0.00000429		-0.00047447		 0.00018216
O		6.03515404		1.07662006		3.31424422		-0.00000429		 0.00047447		-0.00018216
O		4.55901004		1.36970147		0.87190123		-0.00012896		 0.00044684		 0.00037632
O		5.64239976		4.04313801		3.16542095		 0.00012896		-0.00044684		-0.00037632
O		0.54169486		4.07612121		2.89056233		 0.00012896		 0.00044684		 0.00037632
O		9.65971596		1.33671827		1.14675986		-0.00012896		-0.00044684		-0.00037632
O		1.65976937		0.04012827		1.29719495		-0.00053029		 0.00036764		 0.00093770
O		8.54164042		5.37271121		2.74012724		 0.00053029		-0.00036764		-0.00093770
O		3.44093552		5.34098380		3.00452431		-0.00013627		 0.00019063		 0.00045697
O		6.76047529		0.07185465		1.03279787		 0.00013627		-0.00019063		-0.00045697
O		8.54164042		2.77827541		3.05145998		-0.00013627		-0.00019063		-0.00045697
O		1.65976937		2.63456407		0.98586322		 0.00013627		 0.00019063		 0.00045697
O		6.76047529		2.66629147		0.72146614		-0.00053029		-0.00036764		-0.00093770
O		3.44093552		2.74654698		3.31585604		 0.00053029		 0.00036764		 0.00093770
