# total energy = -20637.0238346 eV

CRYSTAL
PRIMVEC
		10.20140980		0.00000000		0.00000000
		0.00000000		5.98348390		-0.47868075
		0.00000000		-0.38043097		4.75533617
PRIMECORD
   28 1
Mg		0.00000000		0.00000000		0.00000000		0.00000000		0.00000000		0.00000000
Mg		5.10070490		-0.19021447		2.37767013		0.00000000		0.00000000		0.00000000
Mg		0.00000000		2.99173991		-0.23933936		0.00000000		0.00000000		0.00000000
Mg		5.10070490		2.80152544		2.13833077		0.00000000		0.00000000		0.00000000
Mg		2.82885094		1.11867640		4.59524953		-0.00058441		-0.00005700		 0.00063918
Mg		7.37255886		4.48437550		-0.31858901		 0.00058441		 0.00005700		-0.00063918
Mg		2.27185396		4.30062975		1.97824107		 0.00058441		-0.00005700		 0.00063918
Mg		7.92955584		1.30242317		2.29842047		-0.00058441		 0.00005700		-0.00063918
Si		0.95893252		1.33365581		1.90800742		-0.00044378		 0.00045318		-0.00007402
Si		9.24247830		4.26939712		2.36865412		 0.00044378		-0.00045318		 0.00007402
Si		4.14177340		4.13518227		4.04633819		 0.00044378		 0.00045318		-0.00007402
Si		6.05963742		1.46787065		0.23032335		-0.00044378		-0.00045318		 0.00007402
O		0.93444914		1.20472937		3.51959145		 0.00011898		 0.00039736		-0.00032538
O		9.26696066		4.39832355		0.75707008		-0.00011898		-0.00039736		 0.00032538
O		4.16625576		4.38668272		0.90258299		-0.00011898		 0.00039736		-0.00032538
O		6.03515404		1.21637020		3.37407855		 0.00011898		-0.00039736		 0.00032538
O		4.55901004		1.41175780		0.93173556		 0.00001751		-0.00056092		-0.00003064
O		5.64239976		4.19129512		3.34492598		-0.00001751		 0.00056092		 0.00003064
O		0.54169486		4.21328426		3.07006735		-0.00001751		-0.00056092		-0.00003064
O		9.65971596		1.38976866		1.20659521		 0.00001751		 0.00056092		 0.00003064
O		1.65976937		0.09296851		1.30514083		-0.00004507		-0.00044257		-0.00082263
O		8.54164042		5.51008339		2.97152071		 0.00004507		 0.00044257		 0.00082263
O		3.44093552		5.48893179		3.23591677		-0.00042031		-0.00009009		-0.00007001
O		6.76047529		0.11412113		1.04074375		 0.00042031		 0.00009009		 0.00007001
O		8.54164042		2.91564657		3.17907452		-0.00042031		 0.00009009		 0.00007001
O		1.65976937		2.68740635		1.09758600		 0.00042031		-0.00009009		-0.00007001
O		6.76047529		2.70855795		0.83318994		-0.00004507		 0.00044257		 0.00082263
O		3.44093552		2.89449497		3.44347160		 0.00004507		-0.00044257		-0.00082263
