# total energy = -20632.025367 eV

CRYSTAL
PRIMVEC
		10.20140980		0.00000000		0.00000000
		0.00000000		5.98348390		0.95736150
		0.00000000		0.76085175		4.75533617
PRIMECORD
   28 1
Mg		0.00000000		0.00000000		0.00000000		0.00000000		0.00000000		0.00000000
Mg		5.10070490		0.38042689		2.37767013		0.00000000		0.00000000		0.00000000
Mg		0.00000000		2.99173991		0.47867769		0.00000000		0.00000000		-0.00000000
Mg		5.10070490		3.37216680		2.85634782		0.00000000		-0.00000000		0.00000000
Mg		2.82885094		2.25025656		4.95425856		-0.00045685		-0.00024777		-0.00072803
Mg		7.37255886		4.49407705		0.75843809		 0.00045685		 0.00024777		 0.00072803
Mg		2.27185396		4.86156957		3.05526715		 0.00045685		-0.00024777		-0.00072803
Mg		7.92955584		1.88276403		2.65742951		-0.00045685		 0.00024777		 0.00072803
Si		0.95893252		1.82029774		2.26701645		-0.00078968		 0.00023462		 0.00007659
Si		9.24247830		4.92403586		3.44568122		 0.00078968		-0.00023462		-0.00007659
Si		4.14177340		5.19246556		5.12336529		 0.00078968		 0.00023462		 0.00007659
Si		6.05963742		1.55186906		0.58933238		-0.00078968		-0.00023462		-0.00007659
O		0.93444914		2.07815163		3.87860049		-0.00038128		-0.00073029		 0.00016294
O		9.26696066		4.66618299		1.83409617		 0.00038128		 0.00073029		-0.00016294
O		4.16625576		4.68946465		1.97960907		 0.00038128		-0.00073029		 0.00016294
O		6.03515404		2.05486998		3.73308758		-0.00038128		 0.00073029		-0.00016294
O		4.55901004		1.66409477		1.29074460		-0.00008753		 0.00042536		 0.00009093
O		5.64239976		5.08023985		4.42195206		 0.00008753		-0.00042536		-0.00009093
O		0.54169486		5.03626157		4.14709241		 0.00008753		 0.00042536		 0.00009093
O		9.65971596		1.70807203		1.56560424		-0.00008753		-0.00042536		-0.00009093
O		1.65976937		0.41001710		1.35281813		-0.00041516		 0.00047794		-0.00022679
O		8.54164042		6.33431650		4.35987852		 0.00041516		-0.00047794		 0.00022679
O		3.44093552		6.37662073		4.62427560		 0.00025482		 0.00077586		-0.00032746
O		6.76047529		0.36771288		1.08842106		-0.00025482		-0.00077586		 0.00032746
O		8.54164042		3.73988070		3.94476887		 0.00025482		-0.00077586		 0.00032746
O		1.65976937		3.00445392		1.76792778		-0.00025482		 0.00077586		-0.00032746
O		6.76047529		2.96214970		1.50353070		-0.00041516		-0.00047794		 0.00022679
O		3.44093552		3.78218390		4.20916595		 0.00041516		 0.00047794		-0.00022679
