# total energy = -22457.406649 eV	

CRYSTAL	
PRIMVEC	
		9.50564973		0.00000000		0.00000000	
		0.00000000		7.67700036		0.00000000	
		-0.55087141		0.00000000		4.72194101	
PRIMCOORD
   40 1	
Ca		6.97789405		0.51819764		0.42544722		-0.00048318		-0.00021252		-0.00012459	
Ca		1.97688047		7.15880272		4.29649569		 0.00048318		 0.00021252		 0.00012459	
Ca		2.25231903		4.35669688		1.93552519		 0.00048318		-0.00021252		 0.00012459	
Ca		6.70245454		3.32030254		2.78641867		-0.00048318		 0.00021252		-0.00012459	
Mg		2.07825347		1.25979612		1.90388754		-0.00035756		 0.00020606		-0.00039660	
Mg		6.87652010		6.41720425		2.81805633		 0.00035756		-0.00020606		 0.00039660	
Mg		7.15195770		5.09829630		0.45708392		 0.00035756		 0.00020606		 0.00039660	
Mg		1.80281586		2.57870407		4.26485899		-0.00035756		-0.00020606		-0.00039660	
Si		4.60059569		1.27438159		2.18484317		-0.00022873		-0.00020390		-0.00049204	
Si		4.35417788		6.40261783		2.53709974		 0.00022873		 0.00020390		 0.00049204	
Si		4.62961549		5.11288177		0.17612828		 0.00022873		-0.00020390		 0.00049204	
Si		4.32515808		2.56411765		4.54581463		-0.00022873		 0.00020390		-0.00049204	
Si		0.15527764		6.55846106		1.24376009		-0.00025382		 0.00023576		-0.00033658	
Si		8.79949593		1.11853931		3.47818378		 0.00025382		-0.00023576		 0.00033658	
Si		9.07493448		2.71996087		1.11721232		 0.00025382		 0.00023576		 0.00033658	
Si		-0.12015997		4.95703854		3.60473059		-0.00025382		-0.00023576		-0.00033658	
O		3.68018073		1.29971604		0.53310726		-0.00007948		 0.00016701		-0.00022179	
O		5.27459378		6.37728337		4.18883566		 0.00007948		-0.00016701		 0.00022179	
O		5.55003139		5.13821623		1.82786420		 0.00007948		 0.00016701		 0.00022179	
O		3.40474313		2.53878414		2.89407871		-0.00007948		-0.00016701		-0.00022179	
O		3.67235093		3.70875852		0.40467072		-0.00020210		-0.00025894		-0.00025611	
O		5.28242359		3.96824089		4.31727314		 0.00020210		 0.00025894		 0.00025611	
O		5.55786214		7.54725870		1.95630074		 0.00020210		-0.00025894		 0.00025611	
O		3.39691332		0.12974071		2.76564217		-0.00020210		 0.00025894		-0.00025611	
O		5.70252768		2.25089603		1.26217633		 0.00000190		-0.00050103		-0.00061184	
O		3.25224589		5.42610338		3.45976753		-0.00000190		 0.00050103		 0.00061184	
O		3.52768350		6.08939716		1.09879608		-0.00000190		-0.00050103		 0.00061184	
O		5.42709007		1.58760415		3.62314684		 0.00000190		 0.00050103		-0.00061184	
O		1.23512515		2.69923285		1.02371665		-0.00021369		-0.00038088		-0.00023705	
O		7.71964841		4.97776656		3.69822626		 0.00021369		 0.00038088		 0.00023705	
O		7.99508697		6.53773304		1.33725385		 0.00021369		-0.00038088		 0.00023705	
O		0.95968659		1.13926733		3.38468906		-0.00021369		 0.00038088		-0.00023705	
O		0.89455768		0.22186472		0.93636068		 0.00049788		 0.00006903		 0.00022812	
O		8.06021588		7.45513470		3.78558223		-0.00049788		-0.00006903		-0.00022812	
O		8.33565349		4.06036585		1.42460982		-0.00049788		 0.00006903		-0.00022812	
O		0.61912008		3.61663452		3.29733309		 0.00049788		-0.00006903		 0.00022812	
O		0.99022540		5.44299302		0.32817495		-0.00055672		 0.00011657		-0.00042486	
O		7.96454912		2.23400734		4.39376796		 0.00055672		-0.00011657		 0.00042486	
O		8.23998673		1.60449284		2.03279650		 0.00055672		 0.00011657		 0.00042486	
O		0.71478684		6.07250658		2.68914736		-0.00055672		-0.00011657		-0.00042486	
