# total energy = -22445.9759536 eV	

CRYSTAL	
PRIMVEC	
		8.60034978		0.00000000		0.00000000	
		0.00000000		7.67699903		0.00000000	
		-0.49841607		0.00000000		4.72194465	
PRIMCOORD
   40 1	
Ca		6.31333187		0.51819774		0.42544726		 0.00009728		 0.00070927		 0.00049379	
Ca		1.78860614		7.15880301		4.29649566		-0.00009728		-0.00070927		-0.00049379	
Ca		2.03781160		4.35669725		1.93552506		-0.00009728		 0.00070927		-0.00049379	
Ca		6.06412555		3.32030264		2.78641873		 0.00009728		-0.00070927		 0.00049379	
Mg		1.88032457		1.25979558		1.90388781		-0.00025312		-0.00023552		-0.00008124	
Mg		6.22161344		6.41720345		2.81805597		 0.00025312		 0.00023552		 0.00008124	
Mg		6.47081889		5.09829595		0.45708365		 0.00025312		-0.00023552		 0.00008124	
Mg		1.63111912		2.57870394		4.26485927		-0.00025312		 0.00023552		-0.00008124	
Si		4.16244373		1.27438177		2.18484318		-0.00002110		-0.00001491		-0.00030714	
Si		3.93949514		6.40261812		2.53709975		 0.00002110		 0.00001491		 0.00030714	
Si		4.18870060		5.11288214		0.17612828		 0.00002110		-0.00001491		 0.00030714	
Si		3.91323827		2.56411774		4.54581464		-0.00002110		 0.00001491		-0.00030714	
Si		0.14048929		6.55846076		1.24376022		 0.00004759		-0.00023869		-0.00030577	
Si		7.96144872		1.11853913		3.47818356		-0.00004759		 0.00023869		 0.00030577	
Si		8.21065503		2.71996124		1.11721210		-0.00004759		-0.00023869		 0.00030577	
Si		-0.10871702		4.95703865		3.60473083		 0.00004759		 0.00023869		-0.00030577	
O		3.32968734		1.29971582		0.53310730		 0.00031855		-0.00049232		-0.00011847	
O		4.77225067		6.37728407		4.18883562		-0.00031855		 0.00049232		 0.00011847	
O		5.02145699		5.13821620		1.82786416		-0.00031855		-0.00049232		 0.00011847	
O		3.08048103		2.53878369		2.89407876		 0.00031855		 0.00049232		-0.00011847	
O		3.32260323		3.70875894		0.40467140		 0.00006871		-0.00045366		 0.00019704	
O		4.77933564		3.96824095		4.31727325		-0.00006871		 0.00045366		-0.00019704	
O		5.02854195		7.54725845		1.95630092		-0.00006871		-0.00045366		-0.00019704	
O		3.07339692		0.12974058		2.76564200		 0.00006871		 0.00045366		 0.00019704	
O		5.15942982		2.25089559		1.26217615		 0.00017305		 0.00012742		-0.00008128	
O		2.94250819		5.42610344		3.45976763		-0.00017305		-0.00012742		 0.00008128	
O		3.19171365		6.08939682		1.09879617		-0.00017305		 0.00012742		 0.00008128	
O		4.91022350		1.58760393		3.62314676		 0.00017305		-0.00012742		-0.00008128	
O		1.11749419		2.69923268		1.02371684		 0.00012374		 0.00036901		 0.00031899	
O		6.98444382		4.97776721		3.69822609		-0.00012374		-0.00036901		-0.00031899	
O		7.23365014		6.53773305		1.33725377		-0.00012374		 0.00036901		-0.00031899	
O		0.86828787		1.13926683		3.38468916		 0.00012374		-0.00036901		 0.00031899	
O		0.80936172		0.22186494		0.93636136		 0.00005258		-0.00034306		-0.00008755	
O		7.29257715		7.45513495		3.78558156		-0.00005258		 0.00034306		 0.00008755	
O		7.54178261		4.06036618		1.42461010		-0.00005258		-0.00034306		 0.00008755	
O		0.56015626		3.61663457		3.29733282		 0.00005258		 0.00034306		-0.00008755	
O		0.89591822		5.44299281		0.32817473		 0.00007269		 0.00019152		-0.00014727	
O		7.20601979		2.23400708		4.39376820		-0.00007269		-0.00019152		 0.00014727	
O		7.45522611		1.60449330		2.03279674		-0.00007269		 0.00019152		 0.00014727	
O		0.64671190		6.07250659		2.68914705		 0.00007269		-0.00019152		-0.00014727	
