# total energy = -10831.7307993 eV

CRYSTAL
PRIMVEC
		3.03200014		0.00000000		0.00000000
		-1.51600007		2.62578792		0.00000000
		0.00000000		0.00000000		16.08200164
PRIMECORD
   13 1
Mg		1.51600007		0.87526294		2.68033300		0.00000000		-0.00000000		 0.00008501
Mg		0.00000000		1.75052619		13.40166652		-0.00000000		0.00000000		-0.00008501
Mg		0.00000000		0.00000000		0.00000000		0.00000000		0.00000000		0.00000000
Mg		0.00000000		1.75052619		5.36066721		0.00000000		0.00000000		-0.00057706
Mg		1.51600007		0.87526294		10.72133352		0.00000000		-0.00000000		 0.00057706
O		1.51600007		0.87526294		14.74183484		0.00000000		0.00000000		 0.00019328
O		0.00000000		1.75052619		1.34016620		0.00000000		-0.00000000		-0.00019328
O		1.51600007		0.87526294		6.54537427		0.00000000		-0.00000000		 0.00008638
O		0.00000000		1.75052619		9.53662646		0.00000000		0.00000000		-0.00008638
O		0.00000000		0.00000000		12.06471667		0.00000000		-0.00000000		-0.00014661
O		0.00000000		0.00000000		4.01728407		0.00000000		0.00000000		 0.00014661
H		1.51600007		0.87526294		7.61000230		0.00000000		0.00000000		 0.00031868
H		0.00000000		1.75052619		8.47199843		0.00000000		-0.00000000		-0.00031868
