# total energy = -10831.8617984 eV

CRYSTAL
PRIMVEC
		3.03200014		0.00000000		0.00000000
		-1.51600007		2.62578792		0.00000000
		0.00000000		0.00000000		14.21200039
PRIMECORD
   13 1
Mg		1.51600007		0.87526294		2.36866704		0.00000000		-0.00000000		 0.00011484
Mg		0.00000000		1.75052619		11.84333366		0.00000000		0.00000000		-0.00011484
Mg		0.00000000		0.00000000		0.00000000		0.00000000		-0.00000000		0.00000000
Mg		0.00000000		1.75052619		4.73733316		0.00000000		-0.00000000		-0.00050300
Mg		1.51600007		0.87526294		9.47466632		0.00000000		0.00000000		 0.00050300
O		1.51600007		0.87526294		13.02766748		0.00000000		-0.00000000		-0.00094098
O		0.00000000		1.75052619		1.18433291		0.00000000		0.00000000		 0.00094098
O		1.51600007		0.87526294		5.78428433		0.00000000		-0.00000000		 0.00000623
O		0.00000000		1.75052619		8.42771637		0.00000000		0.00000000		-0.00000623
O		0.00000000		0.00000000		10.66184264		0.00000000		0.00000000		 0.00006675
O		0.00000000		0.00000000		3.55015805		0.00000000		0.00000000		-0.00006675
H		1.51600007		0.87526294		6.72511822		0.00000000		-0.00000000		-0.00015286
H		0.00000000		1.75052619		7.48688248		0.00000000		0.00000000		 0.00015286
