# total energy = -10831.8245243 eV

CRYSTAL
PRIMVEC
		3.03200014		0.00000000		0.00000000
		-1.51600007		2.62578792		0.00000000
		0.00000000		0.00000000		15.33400114
PRIMECORD
   13 1
Mg		1.51600007		0.87526294		2.55566716		0.00000000		0.00000000		 0.00024068
Mg		0.00000000		1.75052619		12.77833368		0.00000000		0.00000000		-0.00024068
Mg		0.00000000		0.00000000		0.00000000		0.00000000		-0.00000000		0.00000000
Mg		0.00000000		1.75052619		5.11133311		0.00000000		0.00000000		-0.00050606
Mg		1.51600007		0.87526294		10.22266652		0.00000000		-0.00000000		 0.00050606
O		1.51600007		0.87526294		14.05616772		0.00000000		0.00000000		 0.00022584
O		0.00000000		1.75052619		1.27783313		0.00000000		-0.00000000		-0.00022584
O		1.51600007		0.87526294		6.24093842		0.00000000		0.00000000		-0.00012116
O		0.00000000		1.75052619		9.09306242		0.00000000		-0.00000000		 0.00012116
O		0.00000000		0.00000000		11.50356651		0.00000000		0.00000000		-0.00036675
O		0.00000000		0.00000000		3.83043433		0.00000000		0.00000000		 0.00036675
H		1.51600007		0.87526294		7.25604934		0.00000000		0.00000000		 0.00009811
H		0.00000000		1.75052619		8.07795241		0.00000000		-0.00000000		-0.00009811
