# total energy = -2069.03646455 eV	

CRYSTAL	
PRIMVEC	
		3.15837295		0.00000000		0.00000000	
		-1.57918648		2.54440104		0.00000000	
		0.00000000		0.00000000		2.67968047	
PRIMCOORD
   2 1	
Mg		0.00000000		0.00000000		0.00000000		0.00000000		 0.00047055		0.00000000	
O		0.00000000		1.69626705		1.33983992		0.00000000		-0.00047055		0.00000000	
