# total energy = -44009.3175625 eV

CRYSTAL
PRIMVEC
		9.81799975		0.00000000		0.00000000
		0.00000000		18.04700533		0.00000000
		-1.33411890		0.00000000		5.61385371
PRIMECORD
   82 1
Si		2.35753443		1.51594825		1.66394576		-0.00030744		-0.00005764		-0.00013708
Si		6.12634446		16.53105217		3.94990795		 0.00030744		 0.00005764		 0.00013708
Si		6.12634446		1.51594825		3.94990795		 0.00030744		-0.00005764		 0.00013708
Si		2.35753443		16.53105217		1.66394576		-0.00030744		 0.00005764		-0.00013708
Si		7.26653430		10.53944797		1.66394576		-0.00004067		-0.00002967		-0.00007631
Si		1.21734557		7.50755245		3.94990795		 0.00004067		 0.00002967		 0.00007631
Si		1.21734557		10.53944797		3.94990795		 0.00004067		-0.00002967		 0.00007631
Si		7.26653430		7.50755245		1.66394576		-0.00004067		 0.00002967		-0.00007631
Si		1.76155730		3.08784241		4.51466090		-0.00026279		-0.00020686		-0.00016517
Si		6.72232257		14.95915899		1.09919282		 0.00026279		 0.00020686		 0.00016517
Si		6.72232257		3.08784241		1.09919282		 0.00026279		-0.00020686		 0.00016517
Si		1.76155730		14.95915899		4.51466090		-0.00026279		 0.00020686		-0.00016517
Si		6.67055717		12.11134311		4.51466090		 0.00040885		 0.00033451		-0.00007231
Si		1.81332172		5.93565829		1.09919282		-0.00040885		-0.00033451		 0.00007231
Si		1.81332172		12.11134311		1.09919282		-0.00040885		 0.00033451		 0.00007231
Si		6.67055717		5.93565829		4.51466090		 0.00040885		-0.00033451		-0.00007231
O		2.58846753		2.13856947		3.30319238		 0.00012421		-0.00010370		 0.00005405
O		5.89541038		15.90843095		2.31066231		-0.00012421		 0.00010370		-0.00005405
O		5.89541038		2.13856947		2.31066231		-0.00012421		-0.00010370		-0.00005405
O		2.58846753		15.90843095		3.30319238		 0.00012421		 0.00010370		 0.00005405
O		7.49746838		11.16207017		3.30319238		 0.00004586		-0.00016780		-0.00001345
O		0.98641051		6.88493123		2.31066231		-0.00004586		 0.00016780		 0.00001345
O		0.98641051		11.16207017		2.31066231		-0.00004586		-0.00016780		 0.00001345
O		7.49746838		6.88493123		3.30319238		 0.00004586		 0.00016780		-0.00001345
O		0.80703271		1.55204216		1.21876820		-0.00012685		 0.00013699		-0.00021168
O		7.67684716		16.49495727		4.39508551		 0.00012685		-0.00013699		 0.00021168
O		7.67684716		1.55204216		4.39508551		 0.00012685		 0.00013699		 0.00021168
O		0.80703271		16.49495727		1.21876820		-0.00012685		-0.00013699		-0.00021168
O		5.71603258		10.57554286		1.21876820		-0.00032550		 0.00015738		-0.00025306
O		2.76784729		7.47145756		4.39508551		 0.00032550		-0.00015738		 0.00025306
O		2.76784729		10.57554286		4.39508551		 0.00032550		 0.00015738		 0.00025306
O		5.71603258		7.47145756		1.21876820		-0.00032550		-0.00015738		-0.00025306
O		2.52914030		4.47565595		4.45347021		 0.00034250		 0.00049199		 0.00015414
O		5.95473957		13.57134349		1.16038350		-0.00034250		-0.00049199		-0.00015414
O		5.95473957		4.47565595		1.16038350		-0.00034250		 0.00049199		-0.00015414
O		2.52914030		13.57134349		4.45347021		 0.00034250		-0.00049199		 0.00015414
O		7.43813919		13.49915665		4.45347021		-0.00000238		 0.00002411		 0.00010065
O		1.04573970		4.54784377		1.16038350		 0.00000238		-0.00002411		-0.00010065
O		1.04573970		13.49915665		1.16038350		 0.00000238		 0.00002411		-0.00010065
O		7.43813919		4.54784377		4.45347021		-0.00000238		-0.00002411		 0.00010065
O		2.91896987		0.00000000		1.63980723		 0.00073850		0.00000000		-0.00032676
O		5.56491000		0.00000000		3.97404649		-0.00073850		0.00000000		 0.00032676
O		7.82796876		9.02349972		1.63980723		 0.00072980		0.00000000		-0.00033739
O		0.65591013		9.02349972		3.97404649		-0.00072980		0.00000000		 0.00033739
O		0.19753030		3.08964696		4.06443001		 0.00014255		-0.00015112		 0.00016005
O		8.28634957		14.95735346		1.54942370		-0.00014255		 0.00015112		-0.00016005
O		8.28634957		3.08964696		1.54942370		-0.00014255		-0.00015112		-0.00016005
O		0.19753030		14.95735346		4.06443001		 0.00014255		 0.00015112		 0.00016005
O		5.10653018		12.11314766		4.06443001		-0.00019136		-0.00018369		 0.00008140
O		3.37734970		5.93385374		1.54942370		 0.00019136		 0.00018369		-0.00008140
O		3.37734970		12.11314766		1.54942370		 0.00019136		-0.00018369		-0.00008140
O		5.10653018		5.93385374		4.06443001		-0.00019136		 0.00018369		 0.00008140
O		0.12189047		0.00000000		4.01502780		-0.00005853		0.00000000		 0.00026978
O		8.36198940		0.00000000		1.59882591		 0.00005853		0.00000000		-0.00026978
O		5.03089034		9.02349972		4.01502780		-0.00015063		0.00000000		 0.00025015
O		3.45298953		9.02349972		1.59882591		 0.00015063		0.00000000		-0.00025015
O		3.26959224		2.42371167		0.55689364		 0.00015418		-0.00002286		-0.00000348
O		5.21428665		15.62328875		5.05696008		-0.00015418		 0.00002286		 0.00000348
O		5.21428665		2.42371167		5.05696008		-0.00015418		-0.00002286		 0.00000348
O		3.26959224		15.62328875		0.55689364		 0.00015418		 0.00002286		-0.00000348
O		8.17859310		11.44721237		0.55689364		 0.00005103		-0.00010676		 0.00005163
O		0.30528678		6.59978805		5.05696008		-0.00005103		 0.00010676		-0.00005163
O		0.30528678		11.44721237		5.05696008		-0.00005103		-0.00010676		-0.00005163
O		8.17859310		6.59978805		0.55689364		 0.00005103		 0.00010676		 0.00005163
Ca		-0.66706043		5.00984644		2.80692686		0.00000000		-0.00028931		0.00000000
Ca		-0.66706043		13.03715398		2.80692686		0.00000000		 0.00028931		0.00000000
Ca		4.24193944		14.03334812		2.80692686		0.00000000		-0.00028236		0.00000000
Ca		4.24193944		4.01365328		2.80692686		0.00000000		 0.00028236		0.00000000
Mg		0.00000000		0.00000000		0.00000000		0.00000000		0.00000000		0.00000000
Mg		4.90899987		9.02349972		0.00000000		0.00000000		0.00000000		0.00000000
Mg		0.00000000		3.18709944		0.00000000		0.00000000		-0.00079040		0.00000000
Mg		0.00000000		14.85990098		0.00000000		0.00000000		 0.00079040		0.00000000
Mg		4.90899987		12.21060014		0.00000000		0.00000000		-0.00075763		0.00000000
Mg		4.90899987		5.83640028		0.00000000		0.00000000		 0.00075763		0.00000000
Mg		-0.66706043		1.58452698		2.80692686		0.00000000		-0.00022599		0.00000000
Mg		-0.66706043		16.46247344		2.80692686		0.00000000		 0.00022599		0.00000000
Mg		4.24193944		10.60802768		2.80692686		0.00000000		-0.00002289		0.00000000
Mg		4.24193944		7.43897372		2.80692686		0.00000000		 0.00002289		0.00000000
H		0.92650893		0.00000000		4.32266697		 0.00009897		0.00000000		 0.00011885
H		7.55736996		0.00000000		1.29118675		-0.00009897		0.00000000		-0.00011885
H		5.83550880		9.02349972		4.32266697		 0.00022440		-0.00000000		 0.00015428
H		2.64837009		9.02349972		1.29118675		-0.00022440		-0.00000000		-0.00015428
