# total energy = -44009.1312046 eV

CRYSTAL
PRIMVEC
		9.81799975		0.00000000		0.00000000
		0.00000000		18.04700533		0.00000000
		-1.33411890		0.00000000		4.72073973
PRIMECORD
   82 1
Si		2.35753443		1.51594825		1.39922794		-0.00010232		-0.00022006		 0.00008684
Si		6.12634446		16.53105217		3.32151277		 0.00010232		 0.00022006		-0.00008684
Si		6.12634446		1.51594825		3.32151277		 0.00010232		-0.00022006		-0.00008684
Si		2.35753443		16.53105217		1.39922794		-0.00010232		 0.00022006		 0.00008684
Si		7.26653430		10.53944797		1.39922794		 0.00040914		-0.00002213		 0.00027995
Si		1.21734557		7.50755245		3.32151277		-0.00040914		 0.00002213		-0.00027995
Si		1.21734557		10.53944797		3.32151277		-0.00040914		-0.00002213		-0.00027995
Si		7.26653430		7.50755245		1.39922794		 0.00040914		 0.00002213		 0.00027995
Si		1.76155730		3.08784241		3.79642022		-0.00093361		-0.00016395		 0.00014065
Si		6.72232257		14.95915899		0.92432050		 0.00093361		 0.00016395		-0.00014065
Si		6.72232257		3.08784241		0.92432050		 0.00093361		-0.00016395		-0.00014065
Si		1.76155730		14.95915899		3.79642022		-0.00093361		 0.00016395		 0.00014065
Si		6.67055717		12.11134311		3.79642022		 0.00003931		 0.00061285		 0.00021389
Si		1.81332172		5.93565829		0.92432050		-0.00003931		-0.00061285		-0.00021389
Si		1.81332172		12.11134311		0.92432050		-0.00003931		 0.00061285		-0.00021389
Si		6.67055717		5.93565829		3.79642022		 0.00003931		-0.00061285		 0.00021389
O		2.58846753		2.13856947		2.77768394		-0.00022050		 0.00075244		 0.00009438
O		5.89541038		15.90843095		1.94305677		 0.00022050		-0.00075244		-0.00009438
O		5.89541038		2.13856947		1.94305677		 0.00022050		 0.00075244		-0.00009438
O		2.58846753		15.90843095		2.77768394		-0.00022050		-0.00075244		 0.00009438
O		7.49746838		11.16207017		2.77768394		-0.00023135		 0.00049215		-0.00015148
O		0.98641051		6.88493123		1.94305677		 0.00023135		-0.00049215		 0.00015148
O		0.98641051		11.16207017		1.94305677		 0.00023135		 0.00049215		 0.00015148
O		7.49746838		6.88493123		2.77768394		-0.00023135		-0.00049215		-0.00015148
O		0.80703271		1.55204216		1.02487252		 0.00017579		 0.00029145		 0.00059169
O		7.67684716		16.49495727		3.69586819		-0.00017579		-0.00029145		-0.00059169
O		7.67684716		1.55204216		3.69586819		-0.00017579		 0.00029145		-0.00059169
O		0.80703271		16.49495727		1.02487252		 0.00017579		-0.00029145		 0.00059169
O		5.71603258		10.57554286		1.02487252		-0.00017547		 0.00027694		 0.00049768
O		2.76784729		7.47145756		3.69586819		 0.00017547		-0.00027694		-0.00049768
O		2.76784729		10.57554286		3.69586819		 0.00017547		 0.00027694		-0.00049768
O		5.71603258		7.47145756		1.02487252		-0.00017547		-0.00027694		 0.00049768
O		2.52914030		4.47565595		3.74496408		 0.00015290		 0.00045109		 0.00015730
O		5.95473957		13.57134349		0.97577663		-0.00015290		-0.00045109		-0.00015730
O		5.95473957		4.47565595		0.97577663		-0.00015290		 0.00045109		-0.00015730
O		2.52914030		13.57134349		3.74496408		 0.00015290		-0.00045109		 0.00015730
O		7.43813919		13.49915665		3.74496408		-0.00036305		-0.00025835		 0.00011721
O		1.04573970		4.54784377		0.97577663		 0.00036305		 0.00025835		-0.00011721
O		1.04573970		13.49915665		0.97577663		 0.00036305		-0.00025835		-0.00011721
O		7.43813919		4.54784377		3.74496408		-0.00036305		 0.00025835		 0.00011721
O		2.91896987		0.00000000		1.37892825		 0.00048208		0.00000000		-0.00010103
O		5.56491000		0.00000000		3.34181148		-0.00048208		0.00000000		 0.00010103
O		7.82796876		9.02349972		1.37892825		 0.00055712		0.00000000		-0.00010299
O		0.65591013		9.02349972		3.34181148		-0.00055712		0.00000000		 0.00010299
O		0.19753030		3.08964696		3.41781556		 0.00027023		-0.00022567		-0.00053011
O		8.28634957		14.95735346		1.30292515		-0.00027023		 0.00022567		 0.00053011
O		8.28634957		3.08964696		1.30292515		-0.00027023		-0.00022567		 0.00053011
O		0.19753030		14.95735346		3.41781556		 0.00027023		 0.00022567		-0.00053011
O		5.10653018		12.11314766		3.41781556		-0.00028979		-0.00035248		-0.00065683
O		3.37734970		5.93385374		1.30292515		 0.00028979		 0.00035248		 0.00065683
O		3.37734970		12.11314766		1.30292515		 0.00028979		-0.00035248		 0.00065683
O		5.10653018		5.93385374		3.41781556		-0.00028979		 0.00035248		-0.00065683
O		0.12189047		0.00000000		3.37627364		-0.00012103		-0.00000000		 0.00009796
O		8.36198940		0.00000000		1.34446707		 0.00012103		-0.00000000		-0.00009796
O		5.03089034		9.02349972		3.37627364		-0.00012373		0.00000000		 0.00009905
O		3.45298953		9.02349972		1.34446707		 0.00012373		0.00000000		-0.00009905
O		3.26959224		2.42371167		0.46829797		-0.00021257		 0.00017623		 0.00019218
O		5.21428665		15.62328875		4.25244274		 0.00021257		-0.00017623		-0.00019218
O		5.21428665		2.42371167		4.25244274		 0.00021257		 0.00017623		-0.00019218
O		3.26959224		15.62328875		0.46829797		-0.00021257		-0.00017623		 0.00019218
O		8.17859310		11.44721237		0.46829797		-0.00044106		-0.00009350		 0.00034246
O		0.30528678		6.59978805		4.25244274		 0.00044106		 0.00009350		-0.00034246
O		0.30528678		11.44721237		4.25244274		 0.00044106		-0.00009350		-0.00034246
O		8.17859310		6.59978805		0.46829797		-0.00044106		 0.00009350		 0.00034246
Ca		-0.66706043		5.00984644		2.36036986		0.00000000		-0.00010976		0.00000000
Ca		-0.66706043		13.03715398		2.36036986		0.00000000		 0.00010976		0.00000000
Ca		4.24193944		14.03334812		2.36036986		0.00000000		-0.00001881		0.00000000
Ca		4.24193944		4.01365328		2.36036986		0.00000000		 0.00001881		0.00000000
Mg		0.00000000		0.00000000		0.00000000		0.00000000		0.00000000		0.00000000
Mg		4.90899987		9.02349972		0.00000000		0.00000000		0.00000000		0.00000000
Mg		0.00000000		3.18709944		0.00000000		0.00000000		-0.00016831		0.00000000
Mg		0.00000000		14.85990098		0.00000000		0.00000000		 0.00016831		0.00000000
Mg		4.90899987		12.21060014		0.00000000		0.00000000		 0.00035639		0.00000000
Mg		4.90899987		5.83640028		0.00000000		0.00000000		-0.00035639		0.00000000
Mg		-0.66706043		1.58452698		2.36036986		0.00000000		 0.00046688		0.00000000
Mg		-0.66706043		16.46247344		2.36036986		0.00000000		-0.00046688		0.00000000
Mg		4.24193944		10.60802768		2.36036986		0.00000000		 0.00044778		0.00000000
Mg		4.24193944		7.43897372		2.36036986		0.00000000		-0.00044778		0.00000000
H		0.92650893		0.00000000		3.63497008		-0.00016331		-0.00000000		 0.00040986
H		7.55736996		0.00000000		1.08576965		 0.00016331		-0.00000000		-0.00040986
H		5.83550880		9.02349972		3.63497008		-0.00018101		0.00000000		 0.00040246
H		2.64837009		9.02349972		1.08576965		 0.00018101		0.00000000		-0.00040246
