# total energy = -44012.4578689 eV

CRYSTAL
PRIMVEC
		9.81799975		0.00000000		0.00000000
		0.00000000		18.04700533		0.00000000
		-1.33411890		0.00000000		4.97591936
PRIMECORD
   82 1
Si		2.35753443		1.51594825		1.47486189		 0.00005707		 0.00006623		 0.00039808
Si		6.12634446		16.53105217		3.50105355		-0.00005707		-0.00006623		-0.00039808
Si		6.12634446		1.51594825		3.50105355		-0.00005707		 0.00006623		-0.00039808
Si		2.35753443		16.53105217		1.47486189		 0.00005707		-0.00006623		 0.00039808
Si		7.26653430		10.53944797		1.47486189		-0.00049774		-0.00014628		 0.00023605
Si		1.21734557		7.50755245		3.50105355		 0.00049774		 0.00014628		-0.00023605
Si		1.21734557		10.53944797		3.50105355		 0.00049774		-0.00014628		-0.00023605
Si		7.26653430		7.50755245		1.47486189		-0.00049774		 0.00014628		 0.00023605
Si		1.76155730		3.08784241		4.00163212		 0.00038189		 0.00073982		 0.00017939
Si		6.72232257		14.95915899		0.97428430		-0.00038189		-0.00073982		-0.00017939
Si		6.72232257		3.08784241		0.97428430		-0.00038189		 0.00073982		-0.00017939
Si		1.76155730		14.95915899		4.00163212		 0.00038189		-0.00073982		 0.00017939
Si		6.67055717		12.11134311		4.00163212		-0.00067603		-0.00016628		 0.00009067
Si		1.81332172		5.93565829		0.97428430		 0.00067603		 0.00016628		-0.00009067
Si		1.81332172		12.11134311		0.97428430		 0.00067603		-0.00016628		-0.00009067
Si		6.67055717		5.93565829		4.00163212		-0.00067603		 0.00016628		 0.00009067
O		2.58846753		2.13856947		2.92782865		-0.00027533		 0.00001471		 0.00006040
O		5.89541038		15.90843095		2.04808678		 0.00027533		-0.00001471		-0.00006040
O		5.89541038		2.13856947		2.04808678		 0.00027533		 0.00001471		-0.00006040
O		2.58846753		15.90843095		2.92782865		-0.00027533		-0.00001471		 0.00006040
O		7.49746838		11.16207017		2.92782865		-0.00020599		 0.00021935		 0.00029175
O		0.98641051		6.88493123		2.04808678		 0.00020599		-0.00021935		-0.00029175
O		0.98641051		11.16207017		2.04808678		 0.00020599		 0.00021935		-0.00029175
O		7.49746838		6.88493123		2.92782865		-0.00020599		-0.00021935		 0.00029175
O		0.80703271		1.55204216		1.08027059		-0.00014796		-0.00005244		-0.00053166
O		7.67684716		16.49495727		3.89564485		 0.00014796		 0.00005244		 0.00053166
O		7.67684716		1.55204216		3.89564485		 0.00014796		-0.00005244		 0.00053166
O		0.80703271		16.49495727		1.08027059		-0.00014796		 0.00005244		-0.00053166
O		5.71603258		10.57554286		1.08027059		 0.00024400		-0.00009993		-0.00041228
O		2.76784729		7.47145756		3.89564485		-0.00024400		 0.00009993		 0.00041228
O		2.76784729		10.57554286		3.89564485		-0.00024400		-0.00009993		 0.00041228
O		5.71603258		7.47145756		1.08027059		 0.00024400		 0.00009993		-0.00041228
O		2.52914030		4.47565595		3.94739356		-0.00008243		-0.00026584		-0.00033252
O		5.95473957		13.57134349		1.02852187		 0.00008243		 0.00026584		 0.00033252
O		5.95473957		4.47565595		1.02852187		 0.00008243		-0.00026584		 0.00033252
O		2.52914030		13.57134349		3.94739356		-0.00008243		 0.00026584		-0.00033252
O		7.43813919		13.49915665		3.94739356		 0.00041477		 0.00046206		-0.00033075
O		1.04573970		4.54784377		1.02852187		-0.00041477		-0.00046206		 0.00033075
O		1.04573970		13.49915665		1.02852187		-0.00041477		 0.00046206		 0.00033075
O		7.43813919		4.54784377		3.94739356		 0.00041477		-0.00046206		-0.00033075
O		2.91896987		0.00000000		1.45346454		-0.00033044		-0.00000000		-0.00003916
O		5.56491000		0.00000000		3.52245090		 0.00033044		-0.00000000		 0.00003916
O		7.82796876		9.02349972		1.45346454		-0.00032267		-0.00000000		-0.00002114
O		0.65591013		9.02349972		3.52245090		 0.00032267		-0.00000000		 0.00002114
O		0.19753030		3.08964696		3.60256283		-0.00031214		 0.00000539		-0.00015227
O		8.28634957		14.95735346		1.37335260		 0.00031214		-0.00000539		 0.00015227
O		8.28634957		3.08964696		1.37335260		 0.00031214		 0.00000539		 0.00015227
O		0.19753030		14.95735346		3.60256283		-0.00031214		-0.00000539		-0.00015227
O		5.10653018		12.11314766		3.60256283		 0.00024668		 0.00005230		-0.00002526
O		3.37734970		5.93385374		1.37335260		-0.00024668		-0.00005230		 0.00002526
O		3.37734970		12.11314766		1.37335260		-0.00024668		 0.00005230		 0.00002526
O		5.10653018		5.93385374		3.60256283		 0.00024668		-0.00005230		-0.00002526
O		0.12189047		0.00000000		3.55877455		-0.00021610		-0.00000000		 0.00036663
O		8.36198940		0.00000000		1.41714088		 0.00021610		-0.00000000		-0.00036663
O		5.03089034		9.02349972		3.55877455		 0.00013516		0.00000000		 0.00047369
O		3.45298953		9.02349972		1.41714088		-0.00013516		0.00000000		-0.00047369
O		3.26959224		2.42371167		0.49361074		-0.00062440		-0.00032148		 0.00002792
O		5.21428665		15.62328875		4.48230470		 0.00062440		 0.00032148		-0.00002792
O		5.21428665		2.42371167		4.48230470		 0.00062440		-0.00032148		-0.00002792
O		3.26959224		15.62328875		0.49361074		-0.00062440		 0.00032148		 0.00002792
O		8.17859310		11.44721237		0.49361074		-0.00041285		-0.00008809		-0.00015381
O		0.30528678		6.59978805		4.48230470		 0.00041285		 0.00008809		 0.00015381
O		0.30528678		11.44721237		4.48230470		 0.00041285		-0.00008809		 0.00015381
O		8.17859310		6.59978805		0.49361074		-0.00041285		 0.00008809		-0.00015381
Ca		-0.66706043		5.00984644		2.48795772		0.00000000		 0.00027156		0.00000000
Ca		-0.66706043		13.03715398		2.48795772		0.00000000		-0.00027156		0.00000000
Ca		4.24193944		14.03334812		2.48795772		0.00000000		 0.00011425		0.00000000
Ca		4.24193944		4.01365328		2.48795772		0.00000000		-0.00011425		0.00000000
Mg		0.00000000		0.00000000		0.00000000		0.00000000		0.00000000		0.00000000
Mg		4.90899987		9.02349972		0.00000000		0.00000000		0.00000000		0.00000000
Mg		0.00000000		3.18709944		0.00000000		0.00000000		-0.00032997		0.00000000
Mg		0.00000000		14.85990098		0.00000000		0.00000000		 0.00032997		0.00000000
Mg		4.90899987		12.21060014		0.00000000		0.00000000		-0.00073937		0.00000000
Mg		4.90899987		5.83640028		0.00000000		0.00000000		 0.00073937		0.00000000
Mg		-0.66706043		1.58452698		2.48795772		0.00000000		-0.00065540		0.00000000
Mg		-0.66706043		16.46247344		2.48795772		0.00000000		 0.00065540		0.00000000
Mg		4.24193944		10.60802768		2.48795772		0.00000000		-0.00065963		0.00000000
Mg		4.24193944		7.43897372		2.48795772		0.00000000		 0.00065963		0.00000000
H		0.92650893		0.00000000		3.83145477		 0.00040558		0.00000000		 0.00051517
H		7.55736996		0.00000000		1.14446067		-0.00040558		0.00000000		-0.00051517
H		5.83550880		9.02349972		3.83145477		 0.00014141		-0.00000000		 0.00044216
H		2.64837009		9.02349972		1.14446067		-0.00014141		-0.00000000		-0.00044216
