# total energy = -117601.252716 eV

CRYSTAL
PRIMVEC
		11.11739966		0.00000000		0.00000000
		0.00000000		14.09699617		0.00000000
		-2.57663525		0.00000000		9.76952612
PRIMECORD
   156 1
Si		8.59246699		0.01395567		0.72440976		 0.00020530		 0.00013838		 0.00000233
Si		-0.05169702		14.08304384		9.04511080		-0.00020530		-0.00013838		-0.00000233
Si		1.23661838		7.06245598		4.16034996		-0.00020530		 0.00013838		-0.00000233
Si		7.30415159		7.03454353		5.60917060		 0.00020530		-0.00013838		 0.00000233
Si		3.79567369		2.67335440		6.58055339		 0.00018671		-0.00010216		-0.00009314
Si		4.74509739		11.42364511		3.18896717		-0.00018671		 0.00010216		 0.00009314
Si		3.45678088		9.72185471		8.07372689		-0.00018671		-0.00010216		 0.00009314
Si		5.08398909		4.37514480		1.69579256		 0.00018671		 0.00010216		-0.00009314
Si		1.27243086		1.76917295		4.16914272		 0.00006412		 0.00004509		 0.00009113
Si		7.26833799		12.32782655		5.60037785		-0.00006412		-0.00004509		-0.00009113
Si		8.55665228		8.81767326		0.71561701		-0.00006412		 0.00004509		-0.00009113
Si		-0.01588454		5.27932736		9.05390244		 0.00006412		-0.00004509		 0.00009113
Si		7.20850415		1.73858343		5.59793535		 0.00000164		 0.00016075		 0.00003950
Si		1.33226582		12.35841608		4.17158521		-0.00000164		-0.00016075		-0.00003950
Si		0.04395153		8.78708263		9.05634605		-0.00000164		 0.00016075		-0.00003950
Si		8.49681844		5.30991688		0.71317452		 0.00000164		-0.00016075		 0.00003950
Mg		4.27038443		0.00000000		4.88475973		0.00000000		0.00000000		-0.00000000
Mg		5.55869983		7.04850031		0.00000000		0.00000000		0.00000000		0.00000000
Mg		4.61551187		2.46006820		3.48175945		 0.00019608		 0.00024080		 0.00034406
Mg		3.92525810		11.63693242		6.28776111		-0.00019608		-0.00024080		-0.00034406
Mg		5.21357238		9.50856740		1.40300138		-0.00019608		 0.00024080		-0.00034406
Mg		3.32719647		4.58843322		8.36652029		 0.00019608		-0.00024080		 0.00034406
Mg		5.55869983		0.00000000		0.00000000		-0.00000000		0.00000000		-0.00000000
Mg		4.27038443		7.04850031		4.88475973		0.00000000		0.00000000		0.00000000
Mg		6.50123631		0.03510208		2.86383659		-0.00001077		-0.00000745		-0.00025847
Mg		2.03953366		14.06189854		6.90568397		 0.00001077		 0.00000745		 0.00025847
Mg		3.32784906		7.08360128		2.02092313		 0.00001077		-0.00000745		 0.00025847
Mg		5.21292091		7.01339823		7.74859743		-0.00001077		 0.00000745		-0.00025847
Mg		0.44279380		0.00493390		1.48887440		-0.00012054		 0.00002504		 0.00016279
Mg		8.09797617		14.09206561		8.28064616		 0.00012054		-0.00002504		-0.00016279
Mg		9.38629046		7.05343421		3.39588532		 0.00012054		 0.00002504		-0.00016279
Mg		-0.84552049		7.04356530		6.37363635		-0.00012054		-0.00002504		 0.00016279
Mg		-0.91180687		0.00493390		6.20091087		 0.00001185		-0.00016901		-0.00009369
Mg		9.45257684		14.09206561		3.56860969		-0.00001185		 0.00016901		 0.00009369
Mg		8.16426144		7.05343421		8.45337053		-0.00001185		-0.00016901		 0.00009369
Mg		0.37650853		7.04356530		1.31615003		 0.00001185		 0.00016901		-0.00009369
Mg		3.35374260		0.03904875		2.10484282		-0.00003823		-0.00002625		-0.00001168
Mg		5.18702737		14.05795075		7.66467774		 0.00003823		 0.00002625		 0.00001168
Mg		6.47534166		7.08754906		2.77991690		 0.00003823		-0.00002625		 0.00001168
Mg		2.06542831		7.00945044		6.98960366		-0.00003823		 0.00002625		-0.00001168
Mg		6.89969725		2.39564398		1.20760975		-0.00008044		 0.00022740		 0.00010010
Mg		1.64107272		11.70135553		8.56190970		 0.00008044		-0.00022740		-0.00010010
Mg		2.92938812		9.44414318		3.67714998		 0.00008044		 0.00022740		-0.00010010
Mg		5.61138185		4.65285633		6.09237059		-0.00008044		-0.00022740		 0.00010010
Mg		-1.71980947		2.43920418		9.47360207		 0.00033171		-0.00014640		-0.00029880
Mg		10.26057944		11.65779533		0.29591850		-0.00033171		 0.00014640		 0.00029880
Mg		8.97226515		9.48770338		5.18067933		-0.00033171		-0.00014640		 0.00029880
Mg		-0.43149519		4.60929613		4.58884234		 0.00033171		 0.00014640		-0.00029880
Mg		0.49238074		2.49798743		7.34638659		 0.00015776		 0.00027564		 0.00003810
Mg		8.04838923		11.59901097		2.42313398		-0.00015776		-0.00027564		-0.00003810
Mg		6.76007272		9.54648885		7.30789481		-0.00015776		 0.00027564		-0.00003810
Mg		1.78069725		4.55051066		2.46162575		 0.00015776		-0.00027564		 0.00003810
Mg		6.30425822		2.48008508		8.74235399		 0.00013458		-0.00005856		-0.00002744
Mg		2.23651064		11.61691443		1.02716657		-0.00013458		 0.00005856		 0.00002744
Mg		0.94819635		9.52858539		5.91192741		-0.00013458		-0.00005856		 0.00002744
Mg		7.59257362		4.56841523		3.85759315		 0.00013458		 0.00005856		-0.00002744
Mg		3.78555685		2.37633084		0.44060478		 0.00029908		-0.00042559		-0.00001727
Mg		4.75521311		11.72066867		9.32891578		-0.00029908		 0.00042559		 0.00001727
Mg		6.04352740		9.42483115		4.44415494		-0.00029908		-0.00042559		 0.00001727
Mg		2.49724145		4.67216836		5.32536562		 0.00029908		 0.00042559		-0.00001727
Mg		9.87481234		2.50221649		1.94237648		 0.00024151		-0.00010954		-0.00015725
Mg		-1.33404349		11.59478191		7.82714519		-0.00024151		 0.00010954		 0.00015725
Mg		-0.04572809		9.55071791		2.94238436		-0.00024151		-0.00010954		 0.00015725
Mg		8.58649805		4.54628160		6.82713621		 0.00024151		 0.00010954		-0.00015725
O		3.81560051		1.06009409		6.54167029		-0.00023415		 0.00009939		 0.00015082
O		4.72516945		13.03690431		3.22785027		 0.00023415		-0.00009939		-0.00015082
O		3.43685405		8.10859440		8.11261000		 0.00023415		 0.00009939		-0.00015082
O		5.10391591		5.98840622		1.65691056		-0.00023415		-0.00009939		 0.00015082
O		6.00880554		1.22502849		4.50668031		 0.00056573		-0.00009636		-0.00020190
O		2.53196443		12.87197102		5.26284136		-0.00056573		 0.00009636		 0.00020190
O		3.82027871		8.27352880		0.37808053		-0.00056573		-0.00009636		 0.00020190
O		4.72049014		5.82347071		9.39144115		 0.00056573		 0.00009636		-0.00020190
O		7.23176953		3.38328042		5.59402759		 0.00040431		 0.00025373		-0.00051903
O		1.30900043		10.71372020		4.17549297		-0.00040431		-0.00025373		 0.00051903
O		0.02068503		10.43177961		9.06025381		-0.00040431		 0.00025373		 0.00051903
O		8.52008493		3.66521989		0.70926675		 0.00040431		-0.00025373		-0.00051903
O		6.82681825		1.20952305		7.12100354		-0.00006609		-0.00041222		-0.00008110
O		1.71395061		12.88747756		2.64851702		 0.00006609		 0.00041222		 0.00008110
O		0.42563632		8.25802225		7.53327675		 0.00006609		-0.00041222		 0.00008110
O		8.11513365		5.83897837		2.23624271		-0.00006609		 0.00041222		-0.00008110
O		1.29765402		3.41852257		4.15106916		 0.00015256		 0.00019120		-0.00028487
O		7.24311595		10.67847694		5.61845029		-0.00015256		-0.00019120		 0.00028487
O		8.53143024		10.46702288		0.73369057		-0.00015256		 0.00019120		 0.00028487
O		0.00933862		3.62997663		9.03583000		 0.00015256		-0.00019120		-0.00028487
O		2.87002009		1.23348661		3.75344980		-0.00031453		 0.00009376		-0.00022692
O		5.67074876		12.86351290		6.01607076		 0.00031453		-0.00009376		 0.00022692
O		6.95906528		8.28198692		1.13130992		 0.00031453		 0.00009376		 0.00022692
O		1.58170469		5.81501148		8.63820953		-0.00031453		-0.00009376		-0.00022692
O		0.84053322		1.22784898		5.68195288		-0.00005774		-0.00030381		 0.00008303
O		7.70023674		12.86915053		4.08756657		 0.00005774		 0.00030381		-0.00008303
O		6.41192134		8.27634929		8.97232741		 0.00005774		-0.00030381		-0.00008303
O		2.12884751		5.82065133		0.79719315		-0.00005774		 0.00030381		 0.00008303
O		0.07901247		1.24194584		3.09791455		 0.00013475		 0.00005674		 0.00001783
O		8.46175638		12.85505367		6.67160601		-0.00013475		-0.00005674		-0.00001783
O		9.75007178		8.29044615		1.78684517		-0.00013475		 0.00005674		-0.00001783
O		-1.20930182		5.80655336		7.98267428		 0.00013475		-0.00005674		 0.00001783
O		4.18266036		3.40160634		5.17100720		-0.00000712		 0.00012489		-0.00021412
O		4.35810849		10.69539317		4.59851337		 0.00000712		-0.00012489		 0.00021412
O		3.06979420		10.45010553		9.48327420		 0.00000712		 0.00012489		 0.00021412
O		5.47097576		3.64689397		0.28624747		-0.00000712		-0.00012489		-0.00021412
O		4.88764024		3.36354370		7.61534205		 0.00008836		-0.00005680		 0.00006756
O		3.65312972		10.73345581		2.15417851		-0.00008836		 0.00005680		-0.00006756
O		2.36481543		10.41204512		7.03893935		-0.00008836		-0.00005680		-0.00006756
O		6.17595453		3.68495550		2.73058122		 0.00008836		 0.00005680		 0.00006756
O		5.11748470		1.19965525		1.68133438		-0.00016408		 0.00026673		 0.00021436
O		3.42328527		12.89734426		8.08818618		 0.00016408		-0.00026673		-0.00021436
O		4.71159956		8.24815445		3.20342535		 0.00016408		 0.00026673		-0.00021436
O		3.82917041		5.84884506		6.56609522		-0.00016408		-0.00026673		 0.00021436
O		4.91315468		1.04881660		9.47448034		 0.00016291		 0.00000451		-0.00020749
O		3.62761529		13.04818291		0.29504022		-0.00016291		-0.00000451		 0.00020749
O		2.33929989		8.09731690		5.17979995		-0.00016291		 0.00000451		 0.00020749
O		6.20147008		5.99968260		4.58972061		 0.00016291		-0.00000451		-0.00020749
O		8.24907719		1.06714252		2.14147910		 0.00023965		 0.00000361		 0.00008835
O		0.29169166		13.02985699		7.62804146		-0.00023965		-0.00000361		-0.00008835
O		1.58000706		8.11564283		2.74328062		-0.00023965		 0.00000361		-0.00008835
O		6.96076179		5.98135668		7.02623994		 0.00023965		-0.00000361		 0.00008835
O		-1.15855867		1.00652601		8.03054580		 0.00008731		 0.00005286		-0.00015191
O		9.69932752		13.09047350		1.73897365		-0.00008731		-0.00005286		 0.00015191
O		8.41101324		8.05502520		6.62373449		-0.00008731		 0.00005286		 0.00015191
O		0.12975673		6.04197430		3.14578608		 0.00008731		-0.00005286		-0.00015191
O		10.13610903		1.12212139		0.27256973		-0.00030112		 0.00017190		 0.00011927
O		-1.59533907		12.97487811		9.49695083		 0.00030112		-0.00017190		-0.00011927
O		-0.30702367		8.17062059		4.61219110		 0.00030112		 0.00017190		-0.00011927
O		8.84779363		5.92637892		5.15732946		-0.00030112		-0.00017190		 0.00011927
O		1.42597994		1.03471973		8.63430287		-0.00012674		 0.00002151		-0.00019389
O		7.11479003		13.06227977		1.13521769		 0.00012674		-0.00002151		 0.00019389
O		5.82647463		8.08322004		6.01997742		 0.00012674		 0.00002151		 0.00019389
O		2.71429534		6.01377947		3.74954204		-0.00012674		-0.00002151		-0.00019389
O		2.13811498		1.02767130		0.69461291		 0.00013380		-0.00001563		-0.00002296
O		6.40265499		13.06932821		9.07490766		-0.00013380		 0.00001563		 0.00002296
O		7.69096928		8.07617050		4.19014793		-0.00013380		-0.00001563		 0.00002296
O		0.84979958		6.02082901		5.57937263		 0.00013380		 0.00001563		-0.00002296
O		2.32322302		3.37200181		6.99009172		 0.00050202		 0.00009986		 0.00007826
O		6.21754806		10.72499769		2.77942885		-0.00050202		-0.00009986		-0.00007826
O		4.92923155		10.42050212		7.66418857		-0.00050202		 0.00009986		-0.00007826
O		3.61153842		3.67649738		2.10533199		 0.00050202		-0.00009986		 0.00007826
O		8.77287237		1.20106382		5.16319166		-0.00019061		 0.00030552		-0.00022071
O		-0.23210351		12.89593568		4.60632890		 0.00019061		-0.00030552		 0.00022071
O		-1.52041780		8.24956525		9.49108862		 0.00019061		 0.00030552		 0.00022071
O		10.06118777		5.84743537		0.27843194		-0.00019061		-0.00030552		-0.00022071
O		-0.89063045		3.49182737		6.22220736		 0.00003085		-0.00002202		-0.00019384
O		9.43140042		10.60517325		3.54731320		-0.00003085		 0.00002202		 0.00019384
O		8.14308613		10.54032657		8.43207293		-0.00003085		-0.00002202		 0.00019384
O		0.39768384		3.55667294		1.33744653		 0.00003085		 0.00002202		-0.00019384
O		9.31038419		3.49746612		3.55512873		 0.00009075		 0.00058582		 0.00016458
O		-0.76961422		10.59953450		6.21439183		-0.00009075		-0.00058582		-0.00016458
O		0.51870118		10.54596531		1.32963210		-0.00009075		 0.00058582		-0.00016458
O		8.02206879		3.55103531		8.43988846		 0.00009075		-0.00058582		 0.00016458
H		-1.26804282		2.72072120		5.86171234		 0.00051616		 0.00031228		-0.00019672
H		9.80881279		11.37627831		3.90780823		-0.00051616		-0.00031228		 0.00019672
H		8.52049739		9.76922039		8.79256906		-0.00051616		 0.00031228		 0.00019672
H		0.02027147		4.32777911		0.97695150		 0.00051616		-0.00031228		-0.00019672
H		9.13389435		2.87578780		4.06412109		 0.00020900		 0.00006937		 0.00010589
H		-0.59312550		11.22121171		5.70539947		-0.00020900		-0.00006937		-0.00010589
H		0.69518990		9.92428811		0.82063975		-0.00020900		 0.00006937		-0.00010589
H		7.84558007		4.17271140		8.94888081		 0.00020900		-0.00006937		 0.00010589
