# total energy = -117595.164168 eV

CRYSTAL
PRIMVEC
		11.64679964		0.00000000		0.00000000
		0.00000000		14.09699511		0.00000000
		-2.69933217		0.00000000		9.76952189
PRIMECORD
   156 1
Si		9.00163208		0.01395636		0.72440997		 0.00005187		 0.00005392		-0.00006075
Si		-0.05415878		14.08304341		9.04511075		-0.00005187		-0.00005392		 0.00006075
Si		1.29550381		7.06245625		4.16034981		-0.00005187		 0.00005392		 0.00006075
Si		7.65196833		7.03454353		5.60917092		 0.00005187		-0.00005392		-0.00006075
Si		3.97642005		2.67335514		6.58055361		 0.00008892		 0.00001912		-0.00004894
Si		4.97105441		11.42364463		3.18896712		-0.00008892		-0.00001912		 0.00004894
Si		3.62138949		9.72185503		8.07372689		-0.00008892		 0.00001912		 0.00004894
Si		5.32608380		4.37514474		1.69579266		 0.00008892		-0.00001912		-0.00004894
Si		1.33302281		1.76917332		4.16914314		-0.00005963		 0.00012308		 0.00035972
Si		7.61444933		12.32782645		5.60037758		 0.00005963		-0.00012308		-0.00035972
Si		8.96411308		8.81767321		0.71561664		 0.00005963		 0.00012308		-0.00035972
Si		-0.01663978		5.27932656		9.05390292		-0.00005963		-0.00012308		 0.00035972
Si		7.55176625		1.73858300		5.59793525		-0.00011605		 0.00001979		 0.00028240
Si		1.39570705		12.35841677		4.17158431		 0.00011605		-0.00001979		-0.00028240
Si		0.04604446		8.78708289		9.05634525		 0.00011605		 0.00001979		-0.00028240
Si		8.90142884		5.30991688		0.71317547		-0.00011605		-0.00001979		 0.00028240
Mg		4.47373723		0.00000000		4.88475978		-0.00000000		-0.00000000		-0.00000000
Mg		5.82339982		7.04849989		0.00000000		0.00000000		-0.00000000		0.00000000
Mg		4.83529815		2.46006847		3.48175951		-0.00011000		-0.00035481		-0.00011914
Mg		4.11217515		11.63693247		6.28776122		 0.00011000		 0.00035481		 0.00011914
Mg		5.46183890		9.50856719		1.40300144		 0.00011000		-0.00035481		 0.00011914
Mg		3.48563440		4.58843258		8.36651928		-0.00011000		 0.00035481		-0.00011914
Mg		5.82339982		0.00000000		0.00000000		0.00000000		0.00000000		0.00000000
Mg		4.47373723		7.04849989		4.88475978		-0.00000000		0.00000000		-0.00000000
Mg		6.81081782		0.03510229		2.86383739		-0.00022801		 0.00008830		-0.00016592
Mg		2.13665548		14.06189865		6.90568333		 0.00022801		-0.00008830		 0.00016592
Mg		3.48631806		7.08360101		2.02092239		 0.00022801		 0.00008830		 0.00016592
Mg		5.46115523		7.01339760		7.74859833		-0.00022801		-0.00008830		-0.00016592
Mg		0.46388038		0.00493358		1.48887446		-0.00023895		 0.00002774		-0.00014224
Mg		8.48359408		14.09206502		8.28064627		 0.00023895		-0.00002774		 0.00014224
Mg		9.83325667		7.05343347		3.39588532		 0.00023895		 0.00002774		 0.00014224
Mg		-0.88578454		7.04356630		6.37363540		-0.00023895		-0.00002774		-0.00014224
Mg		-0.95522741		0.00493358		6.20091103		 0.00027944		-0.00002975		-0.00001574
Mg		9.90269955		14.09206502		3.56860969		-0.00027944		 0.00002975		 0.00001574
Mg		8.55303579		7.05343347		8.45337063		-0.00027944		-0.00002975		 0.00001574
Mg		0.39443750		7.04356630		1.31615009		 0.00027944		 0.00002975		-0.00001574
Mg		3.51344462		0.03904939		2.10484341		-0.00002477		-0.00001960		 0.00000446
Mg		5.43402751		14.05795038		7.66467731		 0.00002477		 0.00001960		-0.00000446
Mg		6.78369126		7.08754928		2.77991637		 0.00002477		-0.00001960		-0.00000446
Mg		2.16378087		7.00945050		6.98960435		-0.00002477		 0.00001960		 0.00000446
Mg		7.22825426		2.39564419		1.20761007		-0.00007503		 0.00002368		 0.00004112
Mg		1.71921904		11.70135558		8.56190949		 0.00007503		-0.00002368		-0.00004112
Mg		3.06888279		9.44414408		3.67714971		 0.00007503		 0.00002368		-0.00004112
Mg		5.87859051		4.65285569		6.09237101		-0.00007503		-0.00002368		 0.00004112
Mg		-1.80170633		2.43920439		9.47360117		-0.00006121		-0.00031434		 0.00031470
Mg		10.74917846		11.65779538		0.29591956		 0.00006121		 0.00031434		-0.00031470
Mg		9.39951587		9.48770428		5.18067933		 0.00006121		-0.00031434		-0.00031470
Mg		-0.45204258		4.60929550		4.58884139		-0.00006121		 0.00031434		 0.00031470
Mg		0.51582744		2.49798812		7.34638659		 0.00034196		-0.00030913		 0.00043259
Mg		8.43164469		11.59901049		2.42313414		-0.00034196		 0.00030913		-0.00043259
Mg		7.08198211		9.54648917		7.30789508		-0.00034196		-0.00030913		-0.00043259
Mg		1.86549236		4.55051060		2.46162564		 0.00034196		 0.00030913		 0.00043259
Mg		6.60446099		2.48008466		8.74235336		 0.00008180		 0.00020336		 0.00014119
Mg		2.34301231		11.61691512		1.02716737		-0.00008180		-0.00020336		-0.00014119
Mg		0.99334739		9.52858571		5.91192831		-0.00008180		 0.00020336		-0.00014119
Mg		7.95412474		4.56841523		3.85759241		 0.00008180		-0.00020336		 0.00014119
Mg		3.96582030		2.37633147		0.44060542		 0.00006795		-0.00001104		-0.00016948
Mg		4.98165183		11.72066830		9.32891530		-0.00006795		 0.00001104		 0.00016948
Mg		6.33131442		9.42483019		4.44415436		-0.00006795		-0.00001104		 0.00016948
Mg		2.61615771		4.67216842		5.32536636		 0.00006795		 0.00001104		-0.00016948
Mg		10.34504150		2.50221707		1.94237637		 0.00012425		 0.00013857		-0.00032747
Mg		-1.39756937		11.59478154		7.82714435		-0.00012425		-0.00013857		 0.00032747
Mg		-0.04790445		9.55071812		2.94238340		-0.00012425		 0.00013857		 0.00032747
Mg		8.99537775		4.54628165		6.82713615		 0.00012425		-0.00013857		-0.00032747
O		3.99729577		1.06009403		6.54167076		 0.00037316		 0.00019529		-0.00027918
O		4.95017752		13.03690457		3.22784996		-0.00037316		-0.00019529		 0.00027918
O		3.60051377		8.10859508		8.11260974		-0.00037316		 0.00019529		 0.00027918
O		5.34695836		5.98840585		1.65691099		 0.00037316		-0.00019529		-0.00027918
O		6.29493914		1.22502902		4.50668020		-0.00011710		-0.00015055		 0.00035356
O		2.65253416		12.87197075		5.26284052		 0.00011710		 0.00015055		-0.00035356
O		4.00219791		8.27352891		0.37808074		 0.00011710		-0.00015055		-0.00035356
O		4.94527538		5.82347087		9.39144115		-0.00011710		 0.00015055		 0.00035356
O		7.57613951		3.38327999		5.59402775		 0.00009966		 0.00018971		-0.00017404
O		1.37133379		10.71371978		4.17549297		-0.00009966		-0.00018971		 0.00017404
O		0.02167004		10.43177988		9.06025392		-0.00009966		 0.00018971		 0.00017404
O		8.92580326		3.66521989		0.70926680		 0.00009966		-0.00018971		-0.00017404
O		7.15190483		1.20952247		7.12100354		 0.00009323		-0.00037608		 0.00034521
O		1.79556847		12.88747730		2.64851718		-0.00009323		 0.00037608		-0.00034521
O		0.44590471		8.25802236		7.53327696		-0.00009323		-0.00037608		-0.00034521
O		8.50156859		5.83897741		2.23624260		 0.00009323		 0.00037608		 0.00034521
O		1.35944706		3.41852321		4.15106847		 0.00026333		 0.00024873		-0.00016734
O		7.58802623		10.67847656		5.61845109		-0.00026333		-0.00024873		 0.00016734
O		8.93768882		10.46702309		0.73369131		-0.00026333		 0.00024873		 0.00016734
O		0.00978448		3.62997668		9.03582941		 0.00026333		-0.00024873		-0.00016734
O		3.00668771		1.23348693		3.75345022		 0.00008404		-0.00004525		-0.00000361
O		5.94078442		12.86351285		6.01607050		-0.00008404		 0.00004525		 0.00000361
O		7.29044934		8.28198681		1.13130955		-0.00008404		-0.00004525		 0.00000361
O		1.65702396		5.81501179		8.63821000		 0.00008404		 0.00004525		-0.00000361
O		0.88055745		1.22784871		5.68195293		 0.00051607		-0.00051446		 0.00054765
O		8.06691468		12.86915106		4.08756662		-0.00051607		 0.00051446		-0.00054765
O		6.71725209		8.27634860		8.97232757		-0.00051607		-0.00051446		-0.00054765
O		2.23022237		5.82065117		0.79719315		 0.00051607		 0.00051446		 0.00054765
O		0.08277613		1.24194600		3.09791477		 0.00012176		-0.00001242		-0.00009131
O		8.86469716		12.85505377		6.67160596		-0.00012176		 0.00001242		 0.00009131
O		10.21436092		8.29044588		1.78684501		-0.00012176		-0.00001242		 0.00009131
O		-1.26688762		5.80655389		7.98267454		 0.00012176		 0.00001242		-0.00009131
O		4.38183466		3.40160623		5.17100667		-0.00011071		-0.00038560		-0.00034408
O		4.56563747		10.69539354		4.59851405		 0.00011071		 0.00038560		 0.00034408
O		3.21597488		10.45010612		9.48327383		 0.00011071		-0.00038560		 0.00034408
O		5.73149725		3.64689365		0.28624689		-0.00011071		 0.00038560		-0.00034408
O		5.12038502		3.36354333		7.61534147		-0.00029795		 0.00001487		 0.00057625
O		3.82708944		10.73345528		2.15417925		 0.00029795		-0.00001487		-0.00057625
O		2.47742453		10.41204438		7.03894019		 0.00029795		 0.00001487		-0.00057625
O		6.47004761		3.68495540		2.73058053		-0.00029795		-0.00001487		 0.00057625
O		5.36117445		1.19965530		1.68133433		 0.00007018		-0.00010375		 0.00033915
O		3.58629769		12.89734447		8.08818523		-0.00007018		 0.00010375		-0.00033915
O		4.93596144		8.24815519		3.20342545		-0.00007018		-0.00010375		-0.00033915
O		4.01151069		5.84884458		6.56609527		 0.00007018		 0.00010375		 0.00033915
O		5.14711442		1.04881644		9.47448050		 0.00019251		 0.00012409		-0.00006778
O		3.80035888		13.04818217		0.29504022		-0.00019251		-0.00012409		 0.00006778
O		2.45069512		8.09731632		5.17980000		-0.00019251		 0.00012409		 0.00006778
O		6.49677818		5.99968228		4.58972072		 0.00019251		-0.00012409		-0.00006778
O		8.64189039		1.06714268		2.14147841		-0.00025453		 0.00018950		 0.00019409
O		0.30558174		13.02985710		7.62804231		 0.00025453		-0.00018950		-0.00019409
O		1.65524549		8.11564256		2.74328136		 0.00025453		 0.00018950		-0.00019409
O		7.29222664		5.98135721		7.02623936		-0.00025453		-0.00018950		 0.00019409
O		-1.21372813		1.00652574		8.03054522		-0.00001268		 0.00041281		 0.00012573
O		10.16120026		13.09047403		1.73897434		 0.00001268		-0.00041281		-0.00012573
O		8.81153768		8.05502563		6.62373528		 0.00001268		 0.00041281		-0.00012573
O		0.13593446		6.04197414		3.14578544		-0.00001268		-0.00041281		 0.00012573
O		10.61878089		1.12212139		0.27257005		-0.00002839		 0.00059870		 0.00025730
O		-1.67130760		12.97487838		9.49695067		 0.00002839		-0.00059870		-0.00025730
O		-0.32164384		8.17062128		4.61219089		 0.00002839		 0.00059870		-0.00025730
O		9.26911714		5.92637849		5.15732983		-0.00002839		-0.00059870		 0.00025730
O		1.49388374		1.03472031		8.63430250		-0.00014986		 0.00026841		-0.00011448
O		7.45358955		13.06227946		1.13521822		 0.00014986		-0.00026841		 0.00011448
O		6.10392580		8.08322020		6.01997800		 0.00014986		 0.00026841		 0.00011448
O		2.84354633		6.01377957		3.74954156		-0.00014986		-0.00026841		-0.00011448
O		2.23992998		1.02767051		0.69461280		 0.00000143		 0.00023790		 0.00045691
O		6.70754332		13.06932810		9.07490792		-0.00000143		-0.00023790		-0.00045691
O		8.05720707		8.07617039		4.19014814		-0.00000143		 0.00023790		-0.00045691
O		0.89026622		6.02082938		5.57937258		 0.00000143		-0.00023790		 0.00045691
O		2.43385152		3.37200240		6.99009235		 0.00017913		 0.00014999		 0.00044097
O		6.51362061		10.72499738		2.77942837		-0.00017913		-0.00014999		-0.00044097
O		5.16395802		10.42050112		7.66418931		-0.00017913		 0.00014999		-0.00044097
O		3.78351644		3.67649749		2.10533141		 0.00017913		-0.00014999		 0.00044097
O		9.19062819		1.20106340		5.16319166		-0.00005651		-0.00016796		-0.00023802
O		-0.24315489		12.89593521		4.60632906		 0.00005651		 0.00016796		 0.00023802
O		-1.59281865		8.24956445		9.49108884		 0.00005651		-0.00016796		 0.00023802
O		10.54029195		5.84743532		0.27843189		-0.00005651		 0.00016796		-0.00023802
O		-0.93304142		3.49182700		6.22220837		 0.00033358		 0.00004193		-0.00004830
O		9.88051589		10.60517394		3.54731235		-0.00033358		-0.00004193		 0.00004830
O		8.53085213		10.54032689		8.43207330		-0.00033358		 0.00004193		 0.00004830
O		0.41662116		3.55667289		1.33744743		 0.00033358		-0.00004193		-0.00004830
O		9.75373581		3.49746638		3.55512852		 0.00015022		 0.00059376		 0.00021567
O		-0.80626252		10.59953456		6.21439220		-0.00015022		-0.00059376		-0.00021567
O		0.54340124		10.54596510		1.32963242		-0.00015022		 0.00059376		-0.00021567
O		8.40407206		3.55103467		8.43988830		 0.00015022		-0.00059376		 0.00021567
H		-1.32842581		2.72072035		5.86171313		 0.00009853		-0.00017843		 0.00031925
H		10.27589911		11.37627826		3.90780759		-0.00009853		 0.00017843		-0.00031925
H		8.92623536		9.76922023		8.79256853		-0.00009853		-0.00017843		-0.00031925
H		0.02123677		4.32777837		0.97695219		 0.00009853		 0.00017843		 0.00031925
H		9.56884170		2.87578817		4.06412045		-0.00028997		-0.00080463		 0.00074062
H		-0.62136841		11.22121160		5.70540027		 0.00028997		 0.00080463		-0.00074062
H		0.72829418		9.92428805		0.82064049		 0.00028997		-0.00080463		-0.00074062
H		8.21917912		4.17271172		8.94888023		-0.00028997		 0.00080463		 0.00074062
