# total energy = -9074.53658373 eV

CRYSTAL
PRIMVEC
		5.11309853		-0.40904686		0.00000000
		-0.41518166		5.18979898		0.00000000
		-0.00383682		0.00030777		7.33029714
PRIMECORD
   28 1
Mg		3.66647504		2.35716707		1.83990502		-0.00078468		-0.00001111		-0.00001677
Mg		1.22356997		-0.02569283		5.49039418		-0.00015313		 0.00007381		 0.00041923
Si		1.27191798		-0.03471807		1.83257506		 0.00001851		-0.00062577		-0.00034045
Si		3.61895698		2.35581187		5.49772414		 0.00001103		 0.00019247		-0.00028851
O		1.44857113		4.92209783		3.53320410		 0.00062280		 0.00023471		-0.00046758
O		3.05701395		2.21512991		3.79709510		-0.00012298		 0.00033508		-0.00024705
O		4.18049991		2.50168174		7.16903179		-0.00018107		-0.00071554		-0.00039273
O		0.67965075		0.20345702		0.16126690		 0.00018721		-0.00008690		-0.00061059
O		4.30152894		3.79661499		5.07989672		 0.00015399		 0.00041654		-0.00018342
O		0.34853901		1.53456202		2.25040197		 0.00070619		-0.00018060		 0.00028390
O		2.02337981		3.24663175		5.87889969		-0.00049262		-0.00016460		 0.00061048
O		2.74460105		0.61064189		1.45139899		 0.00012347		-0.00008735		 0.00023828
O		4.49765087		3.96656294		2.34569611		-0.00023124		-0.00012011		 0.00007092
O		0.12252375		1.73828012		4.98460308		-0.00070752		-0.00031031		-0.00007097
O		1.70582721		3.49892613		1.31945400		 0.00010079		 0.00030756		-0.00019956
O		3.02561821		0.81504991		6.01084520		 0.00045335		-0.00014870		 0.00015843
H		2.00141710		3.98062375		3.58451589		 0.00033442		-0.00024229		 0.00034914
H		2.64865085		1.35055274		3.74578279		-0.00016337		 0.00026404		 0.00010727
H		4.62992107		3.23405899		7.22034410		 0.00052166		 0.00045982		 0.00009213
H		0.10650607		1.01764005		0.10995407		 0.00016642		-0.00010788		 0.00048353
H		1.33494797		2.70870013		5.67365096		 0.00004373		 0.00027932		-0.00021000
H		3.52852605		-0.04507902		1.65664823		-0.00014823		 0.00029952		 0.00003791
H		3.56500711		4.61871171		5.35844919		-0.00041368		-0.00028226		-0.00032181
H		0.96216674		2.24864616		1.97185001		-0.00064847		 0.00011022		 0.00017778
H		4.42530377		4.03938605		3.26198313		 0.00029775		 0.00016726		 0.00016853
H		0.18407698		1.80039195		4.06831607		 0.00013599		 0.00015037		-0.00004857
H		1.81867121		3.42801989		0.38850603		-0.00000690		-0.00015546		 0.00011713
H		2.92273815		0.76140216		6.94179317		 0.00017657		-0.00005183		 0.00008340
