# total energy = -9073.56033229 eV

CRYSTAL
PRIMVEC
		5.11310074		0.61357085		0.00000000
		0.62277351		5.18980161		0.00000000
		-0.00383659		-0.00046348		7.33029846
PRIMECORD
   28 1
Mg		4.19998609		3.13314270		1.83990507		 0.00016467		 0.00031539		 0.00003981
Mg		1.23810096		0.22018308		5.49039390		 0.00026674		 0.00005016		-0.00060994
Si		1.28541201		0.22074492		1.83257487		 0.00000568		 0.00018806		-0.00003168
Si		4.15143085		3.12220095		5.49772410		-0.00033186		 0.00023843		-0.00002228
O		2.46265799		5.29293888		3.53320408		 0.00024169		-0.00088847		 0.00034957
O		3.55212077		2.86614088		3.79709490		 0.00013952		 0.00028557		-0.00033813
O		4.75137795		3.38345200		7.16903199		-0.00053714		 0.00015046		-0.00056764
O		0.73154877		0.34353891		0.16126699		-0.00035710		 0.00017029		-0.00008115
O		5.13501101		4.72360002		5.07989700		 0.00002449		-0.00044563		 0.00011813
O		0.66304121		1.62942985		2.25040197		 0.00007292		 0.00028904		 0.00020521
O		2.70947214		3.70619609		5.87889969		-0.00009653		-0.00039995		 0.00063872
O		2.91171183		1.17293097		1.45139878		 0.00046385		 0.00053082		-0.00012650
O		5.36850009		4.93576077		2.34569613		-0.00018359		-0.00014728		-0.00014228
O		0.47439180		1.79093476		4.98460285		-0.00012344		-0.00027825		 0.00025539
O		2.43758782		3.89863317		1.31945414		 0.00017319		-0.00010309		-0.00008594
O		3.23840013		1.43719722		6.01084484		 0.00014691		-0.00020298		 0.00007518
H		2.83489870		4.44758609		3.58451599		-0.00054803		 0.00063171		-0.00007047
H		2.96315301		1.90544275		3.74578298		 0.00018155		 0.00048291		-0.00012373
H		5.35545466		4.21808603		7.22034391		 0.00009262		 0.00013183		 0.00016976
H		0.31305992		1.05546495		0.10995404		 0.00039290		 0.00013894		-0.00019937
H		1.90167414		3.02102678		5.67365098		-0.00024157		-0.00041188		-0.00007630
H		3.57627171		0.66444607		1.65664800		 0.00007335		-0.00014712		 0.00066803
H		4.55210711		5.41068093		5.35844875		-0.00041880		-0.00042107		 0.00012947
H		1.43028673		2.47852910		1.97184971		-0.00029689		-0.00007395		-0.00045232
H		5.30964580		4.99519389		3.26198305		 0.00047908		 0.00008504		-0.00005891
H		0.54943906		1.86643572		4.06831593		 0.00032377		-0.00042053		-0.00006835
H		2.53797820		3.84929876		0.38850578		-0.00017343		 0.00021085		 0.00031590
H		3.12306406		1.36197589		6.94179268		 0.00006546		 0.00004070		 0.00008983
