# total energy = -18366.7370074 eV	

CRYSTAL	
PRIMVEC	
		4.81500175		0.77040243		0.00000000	
		1.77280184		11.07999810		0.00000000	
		0.00000000		0.00000000		6.37000135	
PRIMCOORD
   28 1	
Mg		0.00000000		0.00000000		0.00000000		0.00000000		0.00000000		0.00000000	
Mg		3.29389985		5.92519977		0.00000000		0.00000000		0.00000000		0.00000000	
Mg		0.00000000		0.00000000		3.18500019		0.00000000		0.00000000		0.00000000	
Mg		3.29389985		5.92519977		3.18500019		0.00000000		0.00000000		0.00000000	
Ca		5.18875501		3.60486319		1.59249985		 0.00024344		-0.00008455		-0.00000000	
Ca		1.39904517		8.24553684		4.77750004		-0.00024344		 0.00008455		0.00000000	
Ca		2.75643504		3.06454286		4.77750004		 0.00035853		-0.00035518		0.00000000	
Ca		3.83136514		8.78585572		1.59249985		-0.00035853		 0.00035518		0.00000000	
Si		2.09290619		1.26335104		1.59249985		 0.00054945		 0.00078337		0.00000000	
Si		4.49489399		10.58704802		4.77750004		-0.00054945		-0.00078337		0.00000000	
Si		5.08188387		5.28279091		4.77750004		-0.00089804		 0.00091433		0.00000000	
Si		1.50591582		6.56760912		1.59249985		 0.00089804		-0.00091433		0.00000000	
O		3.79743820		1.33094600		1.59249985		-0.00084711		-0.00092719		0.00000000	
O		2.79036198		10.51945403		4.77750004		 0.00084711		 0.00092719		0.00000000	
O		2.03878185		5.00102602		4.77750004		-0.00079012		 0.00037471		0.00000000	
O		4.54901784		6.84937499		1.59249985		 0.00079012		-0.00037471		0.00000000	
O		4.36641914		5.70813384		1.59249985		-0.00063794		 0.00035746		0.00000000	
O		2.22138104		6.14226571		4.77750004		 0.00063794		-0.00035746		0.00000000	
O		1.20016079		0.58069514		4.77750004		 0.00014312		 0.00032524		0.00000000	
O		5.38763890		11.26970490		1.59249985		-0.00014312		-0.00032524		0.00000000	
O		1.47498777		1.88784020		0.19109994		-0.00005847		 0.00061812		 0.00035875	
O		5.11281192		9.96255983		6.17889994		 0.00005847		-0.00061812		-0.00035875	
O		4.22641198		4.42255981		6.17889994		-0.00044029		 0.00015636		 0.00057462	
O		2.36138820		7.42783974		0.19109994		 0.00044029		-0.00015636		-0.00057462	
O		5.11281192		9.96255983		3.37610013		 0.00005847		-0.00061812		 0.00035875	
O		1.47498777		1.88784020		2.99389976		-0.00005847		 0.00061812		-0.00035875	
O		2.36138820		7.42783974		2.99389976		 0.00044029		-0.00015636		 0.00057462	
O		4.22641198		4.42255981		3.37610013		-0.00044029		 0.00015636		-0.00057462	
