# total energy = -7175.23861643 eV

CRYSTAL
PRIMVEC
		3.11200009		0.00000000		0.00000000
		-1.55600005		2.69506988		0.00000000
		0.00000000		0.00000000		12.76800112
PRIMECORD
   12 1
O		0.00000000		1.79671419		5.27829106		0.00000000		0.00000000		-0.00008637
O		1.55600005		0.89835694		7.48970913		0.00000000		0.00000000		 0.00008637
O		0.00000000		1.79671419		10.41613444		0.00000000		-0.00000000		 0.00014176
O		1.55600005		0.89835694		2.35186513		0.00000000		0.00000000		-0.00014176
O		0.00000000		0.00000000		0.00000000		-0.00000000		0.00000000		0.00000000
H		0.00000000		1.79671419		4.28877119		0.00000000		0.00000000		 0.00028763
H		1.55600005		0.89835694		8.47922838		0.00000000		-0.00000000		-0.00028763
H		0.00000000		1.79671419		9.42533740		0.00000000		-0.00000000		 0.00003564
H		1.55600005		0.89835694		3.34266216		0.00000000		0.00000000		-0.00003564
Mg		0.00000000		0.00000000		6.38400025		0.00000000		0.00000000		0.00000000
Mg		1.55600005		0.89835694		11.53333438		0.00000000		0.00000000		-0.00038496
Mg		0.00000000		1.79671419		1.23466612		0.00000000		0.00000000		 0.00038496
