# total energy = -49432.4025257 eV	

CRYSTAL	
PRIMVEC	
		18.23300053		0.00000000		0.72931929	
		0.00000000		8.81909208		0.00000000	
		0.20720127		0.00000000		5.18019610	
PRIMCOORD
   80 1	
Mg		7.04058253		5.76857473		4.76204915		 0.00050988		-0.00017265		-0.00002802	
Mg		11.39962657		3.05052647		1.14746989		-0.00050988		 0.00017265		 0.00002802	
Mg		2.33132181		3.05052647		1.98772353		 0.00030835		 0.00005314		 0.00026981	
Mg		16.10888546		5.76857473		3.92179551		-0.00030835		-0.00005314		-0.00026981	
Mg		11.50322903		1.35902322		3.73756977		-0.00050988		-0.00017265		 0.00002802	
Mg		6.93697825		7.46007616		2.17194927		 0.00050988		 0.00017265		-0.00002802	
Mg		16.00528118		7.46007616		1.33169564		-0.00030835		 0.00005314		-0.00026981	
Mg		2.43492610		1.35902322		4.57782340		 0.00030835		-0.00005314		 0.00026981	
Mg		6.94638305		4.29666651		2.13405452		 0.00034950		 0.00014925		 0.00035852	
Mg		11.49382423		4.52243469		3.77546634		-0.00034950		-0.00014925		-0.00035852	
Mg		2.42245388		4.52243469		4.53905277		 0.00034722		-0.00016531		 0.00011921	
Mg		16.01775340		4.29666651		1.37046627		-0.00034722		 0.00016531		-0.00011921	
Mg		11.39021994		8.70621619		1.18536464		-0.00034950		 0.00014925		-0.00035852	
Mg		7.04998734		0.11288501		4.72415440		 0.00034950		-0.00014925		 0.00035852	
Mg		16.12135769		0.11288501		3.96056615		-0.00034722		-0.00016531		-0.00011921	
Mg		2.31884959		8.70621619		1.94895289		 0.00034722		 0.00016531		 0.00011921	
Si		4.96074340		3.01436889		0.46012734		-0.00026570		-0.00023473		-0.00003368	
Si		13.47946388		5.80473231		5.44939170		 0.00026570		 0.00023473		 0.00003368	
Si		4.28032945		5.80473231		3.01886874		 0.00041476		-0.00040931		-0.00027683	
Si		14.15987783		3.01436889		2.89065212		-0.00041476		 0.00040931		 0.00027683	
Si		13.37585959		7.42391858		2.85929183		 0.00026570		-0.00023473		 0.00003368	
Si		5.06434769		1.39518262		3.05022904		-0.00026570		 0.00023473		-0.00003368	
Si		14.26348212		1.39518262		5.48075199		-0.00041476		-0.00040931		 0.00027683	
Si		4.17672516		7.42391858		0.42876887		 0.00041476		 0.00040931		-0.00027683	
Si		8.80052151		2.97556359		4.47972441		 0.00041533		 0.00010614		-0.00001807	
Si		9.63968576		5.84353579		1.42979646		-0.00041533		-0.00010614		 0.00001807	
Si		0.54311916		5.84353579		1.56347276		-0.00058882		-0.00022088		-0.00025078	
Si		17.89708812		2.97556359		4.34604811		 0.00058882		 0.00022088		 0.00025078	
Si		9.74329005		7.38511327		4.01989633		-0.00041533		 0.00010614		 0.00001807	
Si		8.69691723		1.43398610		1.88962453		 0.00041533		-0.00010614		-0.00001807	
Si		17.79348383		1.43398610		1.75594823		 0.00058882		-0.00022088		 0.00025078	
Si		0.64672344		7.38511327		4.15357263		-0.00058882		 0.00022088		-0.00025078	
O		3.35280129		3.00466848		0.30995705		-0.00030265		-0.00006329		-0.00005747	
O		15.08740599		5.81443272		5.59956381		 0.00030265		 0.00006329		 0.00005747	
O		5.88139404		5.81443272		2.99705741		 0.00034247		-0.00081716		-0.00015225	
O		12.55881323		3.00466848		2.91246345		-0.00034247		 0.00081716		 0.00015225	
O		14.98380353		7.41421816		3.00946212		 0.00030265		-0.00006329		 0.00005747	
O		3.45640558		1.40488304		2.90005692		-0.00030265		 0.00006329		-0.00005747	
O		12.66241752		1.40488304		5.50256333		-0.00034247		-0.00081716		 0.00015225	
O		5.77778976		7.41421816		0.40695754		 0.00034247		 0.00081716		-0.00015225	
O		5.68666681		4.43512550		0.44985942		 0.00029682		 0.00012061		-0.00002366	
O		12.75354229		4.38397570		5.45966144		-0.00029682		-0.00012061		 0.00002366	
O		3.55125832		4.38397570		2.95039835		-0.00000595		-0.00033938		 0.00016359	
O		14.88894895		4.43512550		2.95912252		 0.00000595		 0.00033938		-0.00016359	
O		12.64993800		0.02557581		2.86956157		-0.00029682		 0.00012061		 0.00002366	
O		5.79026928		8.79352539		3.03995930		 0.00029682		-0.00012061		-0.00002366	
O		14.99255324		8.79352539		5.54922239		 0.00000595		-0.00033938		-0.00016359	
O		3.44765404		0.02557581		0.36029847		-0.00000595		 0.00033938		 0.00016359	
O		5.68788028		1.96136854		4.53054574		-0.00035585		 0.00031042		 0.00025433	
O		12.75232700		6.85773266		1.37897330		 0.00035585		-0.00031042		-0.00025433	
O		3.66980920		6.85773266		1.86386625		-0.00068726		 0.00058994		-0.00031267	
O		14.77039625		1.96136854		4.04565279		 0.00068726		-0.00058994		 0.00031267	
O		12.85593129		6.37091823		3.96907317		 0.00035585		 0.00031042		-0.00025433	
O		5.58427599		2.44818114		1.94044587		-0.00035585		-0.00031042		 0.00025433	
O		14.66679196		2.44818114		1.45555292		 0.00068726		 0.00058994		 0.00031267	
O		3.77341349		6.37091823		4.45396612		-0.00068726		-0.00058994		-0.00031267	
O		10.41594513		3.01084163		4.54382268		 0.00048094		 0.00067630		 0.00031341	
O		8.02426215		5.80825957		1.36569636		-0.00048094		-0.00067630		-0.00031341	
O		17.16065410		5.80825957		2.22765548		-0.00045922		 0.00008614		 0.00014690	
O		1.27955318		3.01084163		3.68186355		 0.00045922		-0.00008614		-0.00014690	
O		8.12786643		7.42039132		3.95579623		-0.00048094		 0.00067630		-0.00031341	
O		10.31234084		1.39870988		1.95372281		 0.00048094		-0.00067630		 0.00031341	
O		1.17594889		1.39870988		1.09176368		 0.00045922		 0.00008614		-0.00014690	
O		17.26425839		7.42039132		4.81775536		-0.00045922		-0.00008614		 0.00014690	
O		8.02692264		4.26491754		3.88969620		-0.00023813		 0.00011090		 0.00000873	
O		10.41328463		4.55418366		2.01982467		 0.00023813		-0.00011090		-0.00000873	
O		1.27192022		4.55418366		1.03353930		-0.00008910		-0.00004079		-0.00008363	
O		17.16828706		4.26491754		4.87597974		 0.00008910		 0.00004079		 0.00008363	
O		10.51688892		8.67446723		4.60992454		 0.00023813		 0.00011090		-0.00000873	
O		7.92331836		0.14463215		1.29959632		-0.00023813		-0.00011090		 0.00000873	
O		17.06468277		0.14463215		2.28587986		 0.00008910		-0.00004079		 0.00008363	
O		1.37552450		8.67446723		3.62363918		-0.00008910		 0.00004079		-0.00008363	
O		8.29880064		1.72060632		3.45061562		-0.00013255		 0.00003464		-0.00047527	
O		10.14140664		7.09849305		2.45890525		 0.00013255		-0.00003464		 0.00047527	
O		0.96398865		7.09849305		0.57126605		 0.00032412		-0.00075478		-0.00052412	
O		17.47621863		1.72060632		5.33825481		-0.00032412		 0.00075478		 0.00052412	
O		10.24501275		6.13015783		5.04900512		 0.00013255		 0.00003464		 0.00047527	
O		8.19519636		2.68894337		0.86051574		-0.00013255		-0.00003464		-0.00047527	
O		17.37261434		2.68894337		2.74815312		-0.00032412		-0.00075478		 0.00052412	
O		1.06759111		6.13015783		3.16136592		 0.00032412		 0.00075478		-0.00052412	
