# total energy = -49427.9064326 eV	

CRYSTAL	
PRIMVEC	
		18.23300236		0.00000000		-2.18795588	
		0.00000000		8.81910850		0.00000000	
		-0.62161489		0.00000000		5.18019144	
PRIMCOORD
   80 1	
Mg		6.32256536		5.76857335		3.66427747		 0.00032158		-0.00030586		-0.00048685	
Mg		11.28881109		3.05052780		-0.67203824		-0.00032158		 0.00030586		 0.00048685	
Mg		2.02772064		3.05052780		1.62685708		 0.00056078		 0.00051908		 0.00059588	
Mg		15.58365398		5.76857335		1.36538400		-0.00056078		-0.00051908		-0.00059588	
Mg		10.97799814		1.35902278		1.91806116		-0.00032158		-0.00030586		 0.00048685	
Mg		6.63337648		7.46007654		1.07417808		 0.00032158		 0.00030586		-0.00048685	
Mg		15.89446510		7.46007654		-1.22471539		-0.00056078		 0.00051908		-0.00059588	
Mg		1.71690952		1.35902278		4.21695647		 0.00056078		-0.00051908		 0.00059588	
Mg		6.64891593		4.29666641		1.03453246		 0.00023183		 0.00032015		 0.00013197	
Mg		10.96246052		4.52243474		1.95770862		-0.00023183		-0.00032015		-0.00013197	
Mg		1.71057033		4.52243474		4.17993503		 0.00020613		-0.00017300		-0.00010719	
Mg		15.90080612		4.29666641		-1.18769579		-0.00020613		 0.00017300		 0.00010719	
Mg		11.27327164		8.70621515		-0.63239261		-0.00023183		 0.00032015		-0.00013197	
Mg		6.33810481		0.11288416		3.62463185		 0.00023183		-0.00032015		 0.00013197	
Mg		15.58999317		0.11288416		1.40240360		-0.00020613		-0.00017300		 0.00010719	
Mg		2.02138145		8.70621515		1.58983564		 0.00020613		 0.00017300		-0.00010719	
Si		4.91880467		3.01436946		-0.33191297		 0.00053325		 0.00020461		 0.00012944	
Si		12.69256994		5.80473169		3.32415221		-0.00053325		-0.00020461		-0.00012944	
Si		3.82397466		5.80473169		2.35226972		 0.00076527		-0.00038360		 0.00036461	
Si		13.78739996		3.01436946		0.63997136		-0.00076527		 0.00038360		-0.00036461	
Si		13.00338290		7.42391820		0.73405282		-0.00053325		 0.00020461		-0.00012944	
Si		4.60799356		1.39518111		2.25818642		 0.00053325		-0.00020461		 0.00012944	
Si		13.47658884		1.39518111		3.23007075		-0.00076527		-0.00038360		-0.00036461	
Si		4.13478577		7.42391820		-0.23783151		 0.00076527		 0.00038360		 0.00036461	
Si		8.13903059		2.97556306		3.09809924		 0.00051901		-0.00020964		-0.00011553	
Si		9.47234403		5.84353625		-0.10586001		-0.00051901		 0.00020964		 0.00011553	
Si		0.29604478		5.84353625		1.48645475		-0.00011116		-0.00023463		-0.00002848	
Si		17.31532984		2.97556306		1.50578449		 0.00011116		 0.00023463		 0.00002848	
Si		9.16153291		7.38511364		2.48423939		-0.00051901		-0.00020964		 0.00011553	
Si		8.44984354		1.43398568		0.50799985		 0.00051901		 0.00020964		-0.00011553	
Si		17.62614279		1.43398568		-1.08431490		 0.00011116		-0.00023463		 0.00002848	
Si		-0.01476634		7.38511364		4.07655598		-0.00011116		 0.00023463		-0.00002848	
O		3.32462049		3.00466786		-0.22536432		 0.00012137		-0.00024814		 0.00064909	
O		14.28675597		5.81443329		3.21760356		-0.00012137		 0.00024814		-0.00064909	
O		5.43879609		5.81443329		2.07373666		 0.00077412		-0.00027729		-0.00009045	
O		12.17257669		3.00466786		0.91850257		-0.00077412		 0.00027729		 0.00009045	
O		14.59756709		7.41421844		0.62750417		-0.00012137		-0.00024814		-0.00064909	
O		3.01380753		1.40488271		2.36473507		 0.00012137		 0.00024814		 0.00064909	
O		11.86176557		1.40488271		3.50860197		-0.00077412		-0.00027729		 0.00009045	
O		5.74960905		7.41421844		-0.51636273		 0.00077412		 0.00027729		-0.00009045	
O		5.65102662		4.43512585		-0.45858284		 0.00040855		 0.00005026		-0.00005657	
O		11.96034984		4.38397530		3.45082208		-0.00040855		-0.00005026		 0.00005657	
O		3.10120273		4.38397530		2.40019926		 0.00006652		-0.00011457		 0.00064083	
O		14.51017373		4.43512585		0.59204182		-0.00006652		 0.00011457		-0.00064083	
O		12.27116095		0.02557528		0.86072269		-0.00040855		 0.00005026		 0.00005657	
O		5.34021366		8.79352404		2.13151839		 0.00040855		-0.00005026		-0.00005657	
O		14.19936077		8.79352404		3.18214121		-0.00006652		-0.00011457		-0.00064083	
O		3.41201385		0.02557528		-0.18990014		 0.00006652		 0.00011457		 0.00064083	
O		4.99829058		1.96136853		3.64806958		 0.00032957		 0.00032160		 0.00036885	
O		12.61308404		6.85773263		-0.65582850		-0.00032957		-0.00032160		-0.00036885	
O		3.39463801		6.85773263		1.28770326		-0.00002403		-0.00024322		-0.00013091	
O		14.21673844		1.96136853		1.70453598		 0.00002403		 0.00024322		 0.00013091	
O		12.30227108		6.37091726		1.93427273		-0.00032957		 0.00032160		-0.00036885	
O		5.30910354		2.44818205		1.05796835		 0.00032957		-0.00032160		 0.00036885	
O		14.52754956		2.44818205		-0.88556341		 0.00002403		-0.00024322		 0.00013091	
O		3.08382506		6.37091726		3.87780449		-0.00002403		 0.00024322		-0.00013091	
O		9.75453699		3.01084178		2.90372752		 0.00066717		 0.00060425		 0.00050630	
O		7.85683946		5.80825938		0.08851172		-0.00066717		-0.00060425		-0.00050630	
O		16.91366194		5.80825938		-0.50816880		-0.00012729		-0.00035515		 0.00008375	
O		0.69771268		3.01084178		3.50040804		 0.00012729		 0.00035515		-0.00008375	
O		7.54602651		7.42039051		2.67861111		-0.00066717		 0.00060425		-0.00050630	
O		10.06534811		1.39870880		0.31362813		 0.00066717		-0.00060425		 0.00050630	
O		1.00852563		1.39870880		0.91030864		 0.00012729		-0.00035515		-0.00008375	
O		16.60285082		7.42039051		2.08193060		-0.00012729		 0.00035515		 0.00008375	
O		7.45502833		4.26491723		2.62826306		-0.00006596		-0.00038723		-0.00001661	
O		10.15634629		4.55418209		0.36397618		 0.00006596		 0.00038723		 0.00001661	
O		1.11444257		4.55418209		0.83633188		-0.00042852		-0.00052892		 0.00015205	
O		16.49693205		4.26491723		2.15590736		 0.00042852		 0.00052892		-0.00015205	
O		9.84553517		8.67446597		2.95407557		 0.00006596		-0.00038723		 0.00001661	
O		7.76583945		0.14463335		0.03816367		-0.00006596		 0.00038723		-0.00001661	
O		16.80774501		0.14463335		-0.43419203		 0.00042852		-0.00052892		-0.00015205	
O		0.80362961		8.67446597		3.42643127		-0.00042852		 0.00052892		 0.00015205	
O		7.79901550		1.72060615		2.14279744		-0.00050792		-0.00051468		 0.00003864	
O		9.81236095		7.09849316		0.84944180		 0.00050792		 0.00051468		-0.00003864	
O		0.87861822		7.09849316		0.42044305		-0.00016443		 0.00032148		 0.00076212	
O		16.73275640		1.72060615		2.57179619		 0.00016443		-0.00032148		-0.00076212	
O		9.50154799		6.13015673		3.43954119		 0.00050792		-0.00051468		-0.00003864	
O		8.10982662		2.68894443		-0.44730196		-0.00050792		 0.00051468		 0.00003864	
O		17.04356935		2.68894443		-0.01830321		 0.00016443		 0.00032148		-0.00076212	
O		0.56780710		6.13015673		3.01054245		-0.00016443		-0.00032148		 0.00076212	
