# total energy = -66805.4018755 eV	

CRYSTAL	
PRIMVEC	
		19.70869761		0.00082545		0.00000000	
		0.00031184		7.20303068		0.00000000	
		0.00000000		0.00000000		11.44022732	
PRIMCOORD
   112 1	
Ca		14.95011738		7.14942210		2.73741287		-0.00003334		 0.00039408		 0.00017419	
Ca		4.75892692		0.05442119		8.70283463		 0.00003443		-0.00039449		-0.00017307	
Ca		4.75890124		0.05443037		2.73741287		 0.00003337		-0.00039408		 0.00017419	
Ca		14.95008803		7.14943494		8.70283463		-0.00003439		 0.00039450		-0.00017306	
Ca		14.61114972		3.54772332		2.98222570		 0.00007072		 0.00039484		-0.00016060	
Ca		5.09788907		3.65612547		8.45797594		-0.00007000		-0.00039523		 0.00015991	
Ca		5.09787073		3.65613281		2.98222937		-0.00007067		-0.00039486		-0.00016060	
Ca		14.61112771		3.54773066		8.45797411		 0.00007005		 0.00039524		 0.00015990	
Ca		8.41467635		1.39459172		8.20404827		-0.00000865		 0.00007394		-0.00003655	
Ca		11.29431109		5.80922405		3.23621390		 0.00000800		-0.00007532		 0.00003794	
Ca		11.29433310		5.80926624		8.20404644		 0.00000857		-0.00007391		-0.00003656	
Ca		8.41470019		1.39463391		3.23621023		-0.00000802		 0.00007533		 0.00003789	
Ca		1.44032181		4.99651245		8.95754556		 0.00002013		 0.00012486		 0.00000127	
Ca		18.26875000		2.20725380		2.48259738		-0.00001836		-0.00012799		-0.00000409	
Ca		18.26869314		2.20734185		8.95754372		-0.00002014		-0.00012487		 0.00000128	
Ca		1.44026495		4.99659866		2.48259922		 0.00001836		 0.00012793		-0.00000409	
Ca		7.13531052		5.59769349		0.00000000		-0.00021861		-0.00005223		 0.00000026	
Ca		12.57370260		1.60616264		0.00000000		 0.00021857		 0.00005228		 0.00000027	
Ca		2.71929142		1.99317166		5.72011182		 0.00023268		 0.00006803		 0.00000012	
Ca		16.98972536		5.21068447		5.72011182		-0.00023268		-0.00006801		 0.00000013	
Ca		13.54804522		1.47342981		5.72010449		 0.00032294		 0.00009313		-0.00000006	
Ca		6.16097339		5.73042081		5.72010632		-0.00032288		-0.00009320		-0.00000010	
Ca		16.01506539		5.07619250		0.00000000		-0.00035300		 0.00004444		-0.00000019	
Ca		3.69395139		2.12766546		0.00000000		 0.00035302		-0.00004440		-0.00000018	
Ca		9.85450656		3.60192807		0.00002018		-0.00000003		-0.00000001		 0.00000054	
Ca		0.00000000		0.00000000		5.72007697		-0.00000003		 0.00000001		-0.00000084	
Ca		9.85452857		3.60191339		5.72029342		 0.00000026		-0.00000016		 0.00000594	
Ca		0.00000000		0.00000000		-0.00038154		 0.00000012		 0.00000009		-0.00001335	
Si		8.23956476		5.20059927		8.56254432		-0.00000963		 0.00006625		 0.00002768	
Si		11.46947036		2.00324036		2.87767566		 0.00001029		-0.00006684		-0.00002768	
Si		11.46944835		2.00325687		8.56254248		 0.00000959		-0.00006623		 0.00002764	
Si		8.23954459		5.20061577		2.87767200		-0.00001032		 0.00006687		-0.00002771	
Si		1.61554529		1.59947281		8.59887709		-0.00000572		 0.00003324		-0.00007909	
Si		18.09343114		5.60434847		2.84135757		 0.00000432		-0.00003456		 0.00007959	
Si		18.09347149		5.60438332		8.59887709		 0.00000570		-0.00003324		-0.00007911	
Si		1.61558565		1.59950582		2.84135573		-0.00000434		 0.00003455		 0.00007957	
Si		13.04362928		5.39747162		5.72012283		 0.00003313		 0.00048590		 0.00000047	
Si		6.66538567		1.80638451		5.72012283		-0.00003313		-0.00048588		 0.00000046	
Si		16.51843393		1.79545734		0.00000000		-0.00004449		 0.00049834		-0.00000071	
Si		3.19058102		5.40839695		0.00000000		 0.00004450		-0.00049835		-0.00000068	
Si		6.71527971		1.94531741		0.00000000		 0.00002746		 0.00042824		-0.00000011	
Si		12.99373524		5.25853872		0.00000000		-0.00002745		-0.00042821		-0.00000014	
Si		3.14051272		5.54465722		5.72012283		-0.00009612		 0.00057626		 0.00000039	
Si		16.56850407		1.65919891		5.72012100		 0.00009614		-0.00057630		 0.00000040	
Mg		9.85434880		0.00041456		5.72010449		 0.00000011		 0.00000001		-0.00000002	
Mg		0.00015408		3.60151350		0.00000000		-0.00000000		-0.00000006		 0.00000020	
Mg		9.85435247		0.00041456		0.00000000		 0.00000003		-0.00000004		 0.00000058	
Mg		0.00015592		3.60151350		5.72006780		 0.00000001		-0.00000002		-0.00000048	
O		5.67173661		1.89006709		1.32417692		 0.00024218		 0.00006601		 0.00001846	
O		14.03727100		5.31378170		10.11602472		-0.00024257		-0.00006615		-0.00001907	
O		14.03728017		5.31378721		1.32417508		-0.00024218		-0.00006602		 0.00001845	
O		5.67174395		1.89007443		10.11602655		 0.00024257		 0.00006614		-0.00001903	
O		4.18458227		5.49148704		4.39615686		-0.00034446		-0.00000485		-0.00006278	
O		15.52443635		1.71236542		7.04409063		 0.00034456		 0.00000476		 0.00006374	
O		15.52443635		1.71236909		4.39615503		 0.00034446		 0.00000488		-0.00006276	
O		4.18458044		5.49148888		7.04409063		-0.00034454		-0.00000474		 0.00006377	
O		13.49183371		6.23227602		4.35380562		-0.00002411		 0.00024458		 0.00004068	
O		6.21718857		0.97157461		7.08644187		 0.00002445		-0.00024485		-0.00003972	
O		6.21718124		0.97157828		4.35380562		 0.00002413		-0.00024459		 0.00004068	
O		13.49182638		6.23228702		7.08644004		-0.00002443		 0.00024491		-0.00003974	
O		16.07017630		2.62966741		1.36657952		 0.00004185		 0.00025707		-0.00001586	
O		3.63883315		4.57416670		10.07360561		-0.00004210		-0.00025792		 0.00001464	
O		3.63884049		4.57418688		1.36658135		-0.00004182		-0.00025712		-0.00001587	
O		16.07018363		2.62968759		10.07360378		 0.00004210		 0.00025796		 0.00001465	
O		9.20330124		5.54457834		9.91637334		-0.00054656		 0.00037445		-0.00006192	
O		10.50572655		1.65926495		1.52384297		 0.00054690		-0.00037486		 0.00006182	
O		10.50571371		1.65927962		9.91637150		 0.00054652		-0.00037441		-0.00006194	
O		9.20329023		5.54459302		1.52383931		-0.00054689		 0.00037490		 0.00006179	
O		0.65233894		1.94346839		7.24440972		 0.00050354		 0.00023794		 0.00010084	
O		19.05665950		5.26035655		4.19582861		-0.00050391		-0.00023912		-0.00010034	
O		19.05667784		5.26038774		7.24440972		-0.00050357		-0.00023795		 0.00010084	
O		0.65235729		1.94349774		4.19582677		 0.00050391		 0.00023907		-0.00010034	
O		6.65546372		5.55927691		8.98404626		 0.00032303		-0.00005041		-0.00074183	
O		13.05356773		1.64454621		2.45616454		-0.00032247		 0.00004939		 0.00074158	
O		13.05355122		1.64458289		8.98404260		-0.00032307		 0.00005049		-0.00074189	
O		6.65544722		5.55931359		2.45616088		 0.00032244		-0.00004935		 0.00074149	
O		3.20027918		1.95524669		8.17730727		-0.00036523		 0.00001794		 0.00070266	
O		16.50870275		5.24853607		3.26295307		 0.00036430		-0.00002085		-0.00070125	
O		16.50873577		5.24860944		8.17730727		 0.00036526		-0.00001799		 0.00070263	
O		3.20031403		1.95531823		3.26295123		-0.00036433		 0.00002079		-0.00070124	
O		7.54830480		3.35035936		0.00000000		 0.00043260		 0.00029639		-0.00000009	
O		12.16071015		3.85349677		0.00000000		-0.00043264		-0.00029637		-0.00000009	
O		2.30509749		6.94844265		5.72012833		-0.00029675		 0.00044596		 0.00000050	
O		17.40391930		0.25541165		5.72012650		 0.00029677		-0.00044598		 0.00000050	
O		8.32462494		3.66012800		8.01600643		-0.00035712		 0.00016148		 0.00025093	
O		11.38444137		3.54371896		3.42417687		 0.00035894		-0.00016177		-0.00025202	
O		11.38438268		3.54372630		8.01599726		 0.00035695		-0.00016149		 0.00025078	
O		8.32456991		3.66013534		3.42416586		-0.00035906		 0.00016172		-0.00025215	
O		1.52757769		7.26287235		9.14711908		 0.00051350		-0.00003798		-0.00030244	
O		18.18131252		-0.05903456		2.29320730		-0.00051743		 0.00003750		 0.00030606	
O		18.18143542		-0.05901622		9.14711541		-0.00051355		 0.00003800		-0.00030249	
O		1.52770426		7.26288702		2.29320546		 0.00051740		-0.00003748		 0.00030600	
O		7.79413752		0.67117394		0.00000000		-0.00064723		 0.00003588		-0.00000055	
O		11.91487926		6.53268219		0.00000000		 0.00064726		-0.00003586		-0.00000054	
O		2.06283806		4.26962777		5.72014484		 0.00063141		 0.00018235		 0.00000110	
O		17.64617873		2.93422836		5.72014484		-0.00063143		-0.00018238		 0.00000111	
O		11.33370904		5.51011843		5.72012467		-0.00011100		 0.00047176		 0.00000041	
O		8.37530591		1.69373770		5.72012283		 0.00011099		-0.00047175		 0.00000038	
O		18.22847524		1.90832428		-0.00002568		 0.00015770		 0.00049510		-0.00000084	
O		1.48053971		5.29553002		-0.00002385		-0.00015769		-0.00049512		-0.00000087	
O		13.66829721		3.87342137		5.72014301		 0.00010958		 0.00054337		 0.00000112	
O		6.04071591		3.33043476		5.72013751		-0.00010960		-0.00054337		 0.00000107	
O		15.89324688		0.27144928		-0.00004219		-0.00006788		 0.00061480		-0.00000185	
O		3.81576807		6.93240502		-0.00004219		 0.00006787		-0.00061480		-0.00000183	
O		8.82968840		6.20699515		7.35533408		-0.00042271		-0.00028778		 0.00025421	
O		10.87934306		0.99684814		4.08488773		 0.00042323		 0.00028727		-0.00025414	
O		10.87932471		0.99686282		7.35533041		 0.00042268		 0.00028781		 0.00025416	
O		8.82967189		6.20700982		4.08488223		-0.00042323		-0.00028724		-0.00025420	
O		1.02708540		2.60739302		9.80560306		 0.00032068		-0.00024978		-0.00031725	
O		18.68189653		4.59643192		1.63463160		-0.00032191		 0.00024871		 0.00031775	
O		18.68192955		4.59646127		9.80560306		-0.00032072		 0.00024979		-0.00031727	
O		1.02712025		2.60741871		1.63462793		 0.00032193		-0.00024874		 0.00031766	
