# total energy = -66812.3718016 eV	

CRYSTAL	
PRIMVEC	
		17.95051955		-0.00001834		0.00000000	
		-0.00001834		6.56468041		0.00000000	
		0.00000000		0.00000000		10.63741014	
PRIMCOORD
   112 1	
Ca		13.91397218		6.56329365		2.43650959		 0.00000358		-0.00000283		-0.00031401	
Ca		4.03654004		0.00136658		8.20089321		-0.00000353		 0.00000279		 0.00031396	
Ca		4.03654004		0.00136658		2.43650959		-0.00000350		 0.00000281		-0.00031403	
Ca		13.91397218		6.56329365		8.20089321		 0.00000346		-0.00000277		 0.00031398	
Ca		13.01177780		3.28094060		2.88218631		-0.00000360		-0.00000257		 0.00031731	
Ca		4.93873625		3.28371963		7.75521833		 0.00000354		 0.00000251		-0.00031727	
Ca		4.93873625		3.28371963		2.88218631		 0.00000369		 0.00000257		 0.00031733	
Ca		13.01177780		3.28094060		7.75521833		-0.00000367		-0.00000254		-0.00031727	
Ca		7.34197091		0.95346050		8.00699432		 0.00007393		-0.00031172		 0.00041381	
Ca		10.60854313		5.61120157		2.63041032		-0.00007389		 0.00031170		-0.00041384	
Ca		10.60854313		5.61120157		8.00699432		-0.00007389		 0.00031179		 0.00041380	
Ca		7.34197091		0.95346050		2.63041032		 0.00007385		-0.00031179		-0.00041382	
Ca		1.63330354		4.23582089		7.94908604		-0.00007548		-0.00031454		-0.00041247	
Ca		16.31721051		2.32883935		2.68831860		 0.00007544		 0.00031451		 0.00041250	
Ca		16.31721051		2.32883935		7.94908604		 0.00007552		 0.00031447		-0.00041249	
Ca		1.63330354		4.23582089		2.68831860		-0.00007547		-0.00031441		 0.00041252	
Ca		5.83027127		5.27933280		0.00000000		-0.00024062		-0.00066268		-0.00000003	
Ca		12.12024278		1.28532743		0.00000000		 0.00024064		 0.00066267		 0.00000002	
Ca		3.14495365		1.99695958		5.31870140		 0.00024213		-0.00066293		-0.00000002	
Ca		14.80556040		4.56770249		5.31870140		-0.00024213		 0.00066295		0.00000000	
Ca		12.05125693		1.08701695		5.31870140		 0.00075657		-0.00015537		-0.00000003	
Ca		5.89925529		5.47764328		5.31870140		-0.00075656		 0.00015540		 0.00000005	
Ca		14.87447104		4.36929112		0.00000000		-0.00075377		-0.00016004		-0.00000004	
Ca		3.07604301		2.19537095		0.00000000		 0.00075379		 0.00016002		-0.00000000	
Ca		8.97525611		3.28233103		0.00000000		0.00000000		 0.00000001		-0.00000006	
Ca		0.00000000		0.00000000		5.31870140		-0.00000000		0.00000000		 0.00000005	
Ca		8.97525611		3.28233103		5.31870140		0.00000000		0.00000000		 0.00000002	
Ca		0.00000000		0.00000000		0.00000000		0.00000000		 0.00000001		-0.00000002	
Si		7.54557897		4.67761063		8.00493802		 0.00002826		 0.00011312		 0.00007938	
Si		10.40493508		1.88705144		2.63246662		-0.00002824		-0.00011308		-0.00007936	
Si		10.40493508		1.88705144		8.00493802		-0.00002821		-0.00011302		 0.00007934	
Si		7.54557897		4.67761063		2.63246662		 0.00002823		 0.00011306		-0.00007932	
Si		1.42970282		1.39528327		7.95119186		-0.00003132		 0.00011587		-0.00007686	
Si		16.52081123		5.16937880		2.68621277		 0.00003136		-0.00011593		 0.00007685	
Si		16.52081123		5.16937880		7.95119186		 0.00003138		-0.00011595		-0.00007689	
Si		1.42970282		1.39528327		2.68621277		-0.00003133		 0.00011588		 0.00007685	
Si		11.90311564		4.81738549		5.31870140		 0.00020376		-0.00049945		-0.00000001	
Si		6.04739657		1.74727657		5.31870140		-0.00020376		 0.00049940		 0.00000001	
Si		15.02267469		1.53494440		0.00000000		-0.00018271		-0.00048948		-0.00000002	
Si		2.92783936		5.02971767		0.00000000		 0.00018276		 0.00048954		 0.00000001	
Si		6.05841545		1.86707364		0.00000000		 0.00000720		-0.00035756		-0.00000006	
Si		11.89209676		4.69758843		0.00000000		-0.00000726		 0.00035746		 0.00000007	
Si		2.91685900		5.14935515		5.31870140		-0.00000861		-0.00035995		-0.00000003	
Si		15.03365322		1.41530692		5.31870140		 0.00000856		 0.00036002		 0.00000003	
Mg		8.97526161		0.00000000		5.31870140		-0.00000001		 0.00000001		 0.00000001	
Mg		0.00000000		3.28234387		0.00000000		-0.00000001		-0.00000000		-0.00000002	
Mg		8.97526161		0.00000000		0.00000000		-0.00000000		-0.00000000		-0.00000002	
Mg		0.00000000		3.28234387		5.31870140		-0.00000000		-0.00000001		 0.00000002	
O		5.16263944		1.68015441		1.33514443		-0.00071768		-0.00030989		-0.00045716	
O		12.78787461		4.88450766		9.30226020		 0.00071762		 0.00030994		 0.00045719	
O		12.78787461		4.88450766		1.33514443		 0.00071762		 0.00030984		-0.00045720	
O		5.16263944		1.68015441		9.30226020		-0.00071753		-0.00030990		 0.00045728	
O		3.81262401		4.96240290		3.98355697		 0.00071297		-0.00029181		 0.00045585	
O		14.13788821		1.60225917		6.65384767		-0.00071291		 0.00029189		-0.00045594	
O		14.13788821		1.60225917		3.98355697		-0.00071303		 0.00029187		 0.00045584	
O		3.81262401		4.96240290		6.65384767		 0.00071303		-0.00029192		-0.00045592	
O		12.55225916		5.58072768		4.02807273		-0.00010469		 0.00018544		 0.00013719	
O		5.39825305		0.98393439		6.60933191		 0.00010465		-0.00018541		-0.00013725	
O		5.39825305		0.98393439		4.02807273		 0.00010469		-0.00018545		 0.00013719	
O		12.55225916		5.58072768		6.60933191		-0.00010462		 0.00018543		-0.00013720	
O		14.37349632		2.29824806		1.29063785		 0.00010580		 0.00019923		-0.00013892	
O		3.57701590		4.26641217		9.34676679		-0.00010572		-0.00019921		 0.00013893	
O		3.57701590		4.26641217		1.29063785		-0.00010577		-0.00019918		-0.00013892	
O		14.37349632		2.29824806		9.34676679		 0.00010571		 0.00019913		 0.00013895	
O		8.60249991		5.11571152		9.16969797		 0.00002383		 0.00014334		 0.00005982	
O		9.34801231		1.44894871		1.46770667		-0.00002389		-0.00014329		-0.00005979	
O		9.34801231		1.44894871		9.16969797		-0.00002389		-0.00014335		 0.00005990	
O		8.60249991		5.11571152		1.46770667		 0.00002392		 0.00014331		-0.00005984	
O		0.37279105		1.83341534		6.78642825		-0.00002839		 0.00013042		-0.00006318	
O		17.57772116		4.73124489		3.85097639		 0.00002839		-0.00013040		 0.00006311	
O		17.57772116		4.73124673		6.78642642		 0.00002836		-0.00013036		-0.00006305	
O		0.37279105		1.83341534		3.85097639		-0.00002844		 0.00013035		 0.00006302	
O		6.07342402		5.31613333		8.38584786		-0.00039004		-0.00016421		-0.00036097	
O		11.87708819		1.24852691		2.25155678		 0.00039013		 0.00016416		 0.00036105	
O		11.87708819		1.24852874		8.38584786		 0.00038998		 0.00016421		-0.00036088	
O		6.07342402		5.31613333		2.25155678		-0.00039004		-0.00016421		 0.00036097	
O		2.90186694		2.03375827		7.57026001		 0.00039499		-0.00015944		 0.00036123	
O		15.04864711		4.53090197		3.06714463		-0.00039506		 0.00015943		-0.00036122	
O		15.04864711		4.53090197		7.57026001		-0.00039506		 0.00015946		 0.00036131	
O		2.90186694		2.03375827		3.06714463		 0.00039511		-0.00015942		-0.00036127	
O		6.75308729		3.31246557		0.00000000		-0.00018894		-0.00038724		 0.00000003	
O		11.19742676		3.25219466		0.00000000		 0.00018896		 0.00038733		 0.00000009	
O		2.22218533		6.59474341		5.31870140		 0.00018244		-0.00038029		-0.00000009	
O		15.72832872		-0.03008134		5.31870140		-0.00018240		 0.00038019		-0.00000001	
O		7.39002695		3.12787045		7.61563241		 0.00003890		 0.00017140		 0.00013825	
O		10.56048527		3.43679162		3.02177040		-0.00003897		-0.00017139		-0.00013830	
O		10.56048527		3.43679162		7.61563241		-0.00003886		-0.00017149		 0.00013833	
O		7.39002695		3.12787045		3.02177040		 0.00003895		 0.00017146		-0.00013837	
O		1.58521632		6.41022166		8.34049381		-0.00004353		 0.00017957		-0.00014201	
O		16.36529773		0.15443857		2.29691083		 0.00004353		-0.00017951		 0.00014204	
O		16.36529773		0.15443857		8.34049381		 0.00004353		-0.00017950		-0.00014196	
O		1.58521632		6.41022166		2.29691083		-0.00004359		 0.00017952		 0.00014200	
O		7.12314151		0.63197777		0.00000000		 0.00031720		 0.00021783		 0.00000004	
O		10.82737254		5.93268246		0.00000000		-0.00031721		-0.00021781		 0.00000008	
O		1.85209992		3.91428496		5.31870140		-0.00031013		 0.00022737		-0.00000003	
O		16.09841413		2.65037528		5.31870140		 0.00031007		-0.00022736		-0.00000005	
O		10.32488816		5.09065627		5.31870140		 0.00064396		 0.00047659		-0.00000009	
O		7.62562589		1.47400396		5.31870140		-0.00064393		-0.00047661		-0.00000006	
O		16.60091502		1.80824269		0.00000000		-0.00066625		 0.00048845		 0.00000005	
O		1.34959903		4.75641937		0.00000000		 0.00066620		-0.00048848		 0.00000008	
O		12.47841231		3.31074679		5.31870140		-0.00022536		-0.00067594		-0.00000007	
O		5.47209991		3.25391344		5.31870140		 0.00022532		 0.00067594		-0.00000002	
O		14.44737803		0.02831304		0.00000000		 0.00022379		-0.00068475		 0.00000001	
O		3.50313419		6.53634720		0.00000000		-0.00022379		 0.00068474		 0.00000002	
O		7.94665738		5.51397788		6.66194628		 0.00050825		 0.00000537		 0.00031678	
O		10.00385667		1.05068418		3.97545836		-0.00050825		-0.00000541		-0.00031683	
O		10.00385667		1.05068418		6.66194628		-0.00050836		-0.00000534		 0.00031677	
O		7.94665554		5.51397788		3.97545836		 0.00050831		 0.00000535		-0.00031683	
O		1.02866660		2.23170188		9.29416710		-0.00051125		-0.00000103		-0.00032022	
O		16.92184745		4.33295835		1.34323571		 0.00051124		 0.00000104		 0.00032028	
O		16.92184745		4.33295835		9.29416710		 0.00051122		 0.00000102		-0.00032028	
O		1.02866477		2.23170188		1.34323754		-0.00051126		-0.00000099		 0.00032028	
