# total energy = -49445.8906523 eV

CRYSTAL
PRIMVEC
		5.08939982		0.00000000		0.00000000
		0.00000000		15.01559728		0.00000000
		0.00000000		0.00000000		8.69560094
PRIMECORD
   70 1
Si		2.54469991		0.00000000		0.00000000		0.00000000		0.00000000		0.00000000
Si		0.00000000		7.50779966		4.34779996		0.00000000		0.00000000		0.00000000
Si		2.47349870		5.65367379		0.00000000		 0.00011805		 0.00010147		0.00000000
Si		2.61590112		9.36192553		0.00000000		-0.00011805		-0.00010147		0.00000000
Si		0.07120121		13.16147447		4.34779996		-0.00011805		 0.00010147		0.00000000
Si		5.01819861		1.85412587		4.34779996		 0.00011805		-0.00010147		0.00000000
Mg		0.86219522		2.60535690		0.00000000		-0.00037065		-0.00021041		0.00000000
Mg		4.22720460		12.41024241		0.00000000		 0.00037065		 0.00021041		0.00000000
Mg		1.68250469		10.11315656		4.34779996		 0.00037065		-0.00021041		-0.00000000
Mg		3.40689513		4.90244276		4.34779996		-0.00037065		 0.00021041		-0.00000000
Mg		0.80570289		4.85694607		2.81563513		 0.00011138		 0.00042747		-0.00038505
Mg		4.28369694		10.15865478		5.87996480		-0.00011138		-0.00042747		 0.00038505
Mg		4.28369694		10.15865478		2.81563513		-0.00011138		-0.00042747		-0.00038505
Mg		0.80570289		4.85694607		5.87996480		 0.00011138		 0.00042747		 0.00038505
Mg		1.73899703		12.36474573		1.53216483		-0.00011138		 0.00042747		 0.00038505
Mg		3.35040280		2.65085410		7.16343458		 0.00011138		-0.00042747		-0.00038505
Mg		3.35040280		2.65085410		1.53216483		 0.00011138		-0.00042747		 0.00038505
Mg		1.73899703		12.36474573		7.16343458		-0.00011138		 0.00042747		-0.00038505
Mg		2.54469991		7.50779966		2.79363467		0.00000000		0.00000000		-0.00004302
Mg		2.54469991		7.50779966		5.90196373		0.00000000		0.00000000		 0.00004302
Mg		0.00000000		0.00000000		1.55416478		0.00000000		0.00000000		 0.00004302
Mg		0.00000000		0.00000000		7.14143463		0.00000000		0.00000000		-0.00004302
Mg		2.54469991		0.00000000		2.97293881		0.00000000		0.00000000		-0.00001779
Mg		2.54469991		0.00000000		5.72266061		0.00000000		0.00000000		 0.00001779
Mg		0.00000000		7.50779966		1.37486116		0.00000000		0.00000000		 0.00001779
Mg		0.00000000		7.50779966		7.32073775		0.00000000		0.00000000		-0.00001779
O		1.69075002		6.20414582		1.35755720		-0.00024086		 0.00004535		-0.00003557
O		3.39864980		8.81145451		7.33804273		 0.00024086		-0.00004535		 0.00003557
O		3.39864980		8.81145451		1.35755720		 0.00024086		-0.00004535		-0.00003557
O		1.69075002		6.20414582		7.33804273		-0.00024086		 0.00004535		 0.00003557
O		0.85394989		13.71194548		2.99024277		 0.00024086		 0.00004535		 0.00003557
O		4.23544892		1.30365485		5.70535665		-0.00024086		-0.00004535		-0.00003557
O		4.23544892		1.30365485		2.99024277		-0.00024086		-0.00004535		 0.00003557
O		0.85394989		13.71194548		5.70535665		 0.00024086		 0.00004535		-0.00003557
O		2.50953216		3.89249411		0.00000000		-0.00035533		-0.00026793		0.00000000
O		2.57986715		11.12310572		0.00000000		 0.00035533		 0.00026793		-0.00000000
O		0.03516775		11.40029479		4.34779996		 0.00035533		-0.00026793		-0.00000000
O		5.05423207		3.61530606		4.34779996		-0.00035533		 0.00026793		-0.00000000
O		4.02780191		6.22396598		0.00000000		 0.00001429		 0.00056529		-0.00000000
O		1.06159791		8.79163385		0.00000000		-0.00001429		-0.00056529		-0.00000000
O		3.60629782		13.73176666		4.34779996		-0.00001429		 0.00056529		0.00000000
O		1.48310200		1.28383419		4.34779996		 0.00001429		-0.00056529		0.00000000
O		1.81386210		1.09719012		1.25773218		-0.00038744		-0.00031591		 0.00022603
O		3.27553773		13.91841073		7.43786774		 0.00038744		 0.00031591		-0.00022603
O		3.27553773		13.91841073		1.25773218		 0.00038744		 0.00031591		 0.00022603
O		1.81386210		1.09719012		7.43786774		-0.00038744		-0.00031591		-0.00022603
O		0.73083781		8.60498978		3.09006778		 0.00038744		-0.00031591		-0.00022603
O		4.35856201		6.41060954		5.60553062		-0.00038744		 0.00031591		 0.00022603
O		4.35856201		6.41060954		3.09006778		-0.00038744		 0.00031591		-0.00022603
O		0.73083781		8.60498978		5.60553062		 0.00038744		-0.00031591		 0.00022603
O		5.00058979		3.78167905		1.38433914		-0.00026004		-0.00080028		 0.00051568
O		0.08881003		11.23392078		7.31125976		 0.00026004		 0.00080028		-0.00051568
O		0.08881003		11.23392078		1.38433914		 0.00026004		 0.00080028		 0.00051568
O		5.00058979		3.78167905		7.31125976		-0.00026004		-0.00080028		-0.00051568
O		2.63350994		11.28947871		2.96345980		 0.00026004		-0.00080028		-0.00051568
O		2.45588988		3.72612112		5.73213860		-0.00026004		 0.00080028		 0.00051568
O		2.45588988		3.72612112		2.96345980		-0.00026004		 0.00080028		-0.00051568
O		2.63350994		11.28947871		5.73213860		 0.00026004		-0.00080028		 0.00051568
O		0.99589376		13.82621472		0.00000000		-0.00043241		 0.00078953		0.00000000
O		4.09350606		1.18938612		0.00000000		 0.00043241		-0.00078953		0.00000000
O		1.54880615		6.31841456		4.34779996		 0.00043241		 0.00078953		0.00000000
O		3.54059367		8.69718578		4.34779996		-0.00043241		-0.00078953		-0.00000000
H		4.69802498		4.54372099		0.94347294		-0.00004296		-0.00007776		 0.00022170
H		0.39137485		10.47187884		7.75212648		 0.00004296		 0.00007776		-0.00022170
H		0.39137485		10.47187884		0.94347294		 0.00004296		 0.00007776		 0.00022170
H		4.69802498		4.54372099		7.75212648		-0.00004296		-0.00007776		-0.00022170
H		2.93607476		12.05152065		3.40432702		 0.00004296		-0.00007776		-0.00022170
H		2.15332506		2.96407969		5.29127188		-0.00004296		 0.00007776		 0.00022170
H		2.15332506		2.96407969		3.40432702		-0.00004296		 0.00007776		-0.00022170
H		2.93607476		12.05152065		5.29127188		 0.00004296		-0.00007776		 0.00022170
