# total energy = -49443.4226384 eV

CRYSTAL
PRIMVEC
		5.08939982		0.00000000		0.00000000
		0.00000000		12.92039825		0.00000000
		0.00000000		0.00000000		8.69560094
PRIMECORD
   70 1
Si		2.54469991		0.00000000		0.00000000		0.00000000		0.00000000		0.00000000
Si		0.00000000		6.46019964		4.34779996		0.00000000		0.00000000		0.00000000
Si		2.47349870		4.86478883		0.00000000		-0.00094073		 0.00067353		-0.00000000
Si		2.61590112		8.05561095		0.00000000		 0.00094073		-0.00067353		-0.00000000
Si		0.07120121		11.32498948		4.34779996		 0.00094073		 0.00067353		0.00000000
Si		5.01819861		1.59541081		4.34779996		-0.00094073		-0.00067353		0.00000000
Mg		0.86219522		2.24181904		0.00000000		-0.00026061		 0.00050899		-0.00000000
Mg		4.22720460		10.67858176		0.00000000		 0.00026061		-0.00050899		-0.00000000
Mg		1.68250469		8.70201868		4.34779996		 0.00026061		 0.00050899		-0.00000000
Mg		3.40689513		4.21838111		4.34779996		-0.00026061		-0.00050899		-0.00000000
Mg		0.80570289		4.17923293		2.81563513		-0.00042310		-0.00037258		 0.00066797
Mg		4.28369694		8.74116787		5.87996480		 0.00042310		 0.00037258		-0.00066797
Mg		4.28369694		8.74116787		2.81563513		 0.00042310		 0.00037258		 0.00066797
Mg		0.80570289		4.17923293		5.87996480		-0.00042310		-0.00037258		-0.00066797
Mg		1.73899703		10.63943257		1.53216483		 0.00042310		-0.00037258		-0.00066797
Mg		3.35040280		2.28096670		7.16343458		-0.00042310		 0.00037258		 0.00066797
Mg		3.35040280		2.28096670		1.53216483		-0.00042310		 0.00037258		-0.00066797
Mg		1.73899703		10.63943257		7.16343458		 0.00042310		-0.00037258		 0.00066797
Mg		2.54469991		6.46019964		2.79363467		0.00000000		0.00000000		 0.00000132
Mg		2.54469991		6.46019964		5.90196373		0.00000000		0.00000000		-0.00000132
Mg		0.00000000		0.00000000		1.55416478		0.00000000		0.00000000		-0.00000132
Mg		0.00000000		0.00000000		7.14143463		0.00000000		0.00000000		 0.00000132
Mg		2.54469991		0.00000000		2.97293881		0.00000000		0.00000000		 0.00049269
Mg		2.54469991		0.00000000		5.72266061		0.00000000		0.00000000		-0.00049269
Mg		0.00000000		6.46019964		1.37486116		0.00000000		0.00000000		-0.00049269
Mg		0.00000000		6.46019964		7.32073775		0.00000000		0.00000000		 0.00049269
O		1.69075002		5.33845062		1.35755720		-0.00057296		-0.00013701		-0.00000369
O		3.39864980		7.58194865		7.33804273		 0.00057296		 0.00013701		 0.00000369
O		3.39864980		7.58194865		1.35755720		 0.00057296		 0.00013701		-0.00000369
O		1.69075002		5.33845062		7.33804273		-0.00057296		-0.00013701		 0.00000369
O		0.85394989		11.79865077		2.99024277		 0.00057296		-0.00013701		 0.00000369
O		4.23544892		1.12174902		5.70535665		-0.00057296		 0.00013701		-0.00000369
O		4.23544892		1.12174902		2.99024277		-0.00057296		 0.00013701		 0.00000369
O		0.85394989		11.79865077		5.70535665		 0.00057296		-0.00013701		-0.00000369
O		2.50953216		3.34935489		0.00000000		 0.00084155		 0.00026993		0.00000000
O		2.57986715		9.57104489		0.00000000		-0.00084155		-0.00026993		0.00000000
O		0.03516775		9.80955554		4.34779996		-0.00084155		 0.00026993		-0.00000000
O		5.05423207		3.11084475		4.34779996		 0.00084155		-0.00026993		0.00000000
O		4.02780191		5.35550571		0.00000000		-0.00087528		-0.00037728		-0.00000000
O		1.06159791		7.56489356		0.00000000		 0.00087528		 0.00037728		0.00000000
O		3.60629782		11.81570534		4.34779996		 0.00087528		-0.00037728		0.00000000
O		1.48310200		1.10469393		4.34779996		-0.00087528		 0.00037728		0.00000000
O		1.81386210		0.94409385		1.25773218		-0.00034029		 0.00052740		-0.00005162
O		3.27553773		11.97630644		7.43786774		 0.00034029		-0.00052740		 0.00005162
O		3.27553773		11.97630644		1.25773218		 0.00034029		-0.00052740		-0.00005162
O		1.81386210		0.94409385		7.43786774		-0.00034029		 0.00052740		 0.00005162
O		0.73083781		7.40429399		3.09006778		 0.00034029		 0.00052740		 0.00005162
O		4.35856201		5.51610681		5.60553062		-0.00034029		-0.00052740		-0.00005162
O		4.35856201		5.51610681		3.09006778		-0.00034029		-0.00052740		 0.00005162
O		0.73083781		7.40429399		5.60553062		 0.00034029		 0.00052740		-0.00005162
O		5.00058979		3.25400295		1.38433914		 0.00027752		-0.00016751		-0.00003551
O		0.08881003		9.66639683		7.31125976		-0.00027752		 0.00016751		 0.00003551
O		0.08881003		9.66639683		1.38433914		-0.00027752		 0.00016751		-0.00003551
O		5.00058979		3.25400295		7.31125976		 0.00027752		-0.00016751		 0.00003551
O		2.63350994		9.71420258		2.96345980		-0.00027752		-0.00016751		 0.00003551
O		2.45588988		3.20619669		5.73213860		 0.00027752		 0.00016751		-0.00003551
O		2.45588988		3.20619669		2.96345980		 0.00027752		 0.00016751		 0.00003551
O		2.63350994		9.71420258		5.73213860		-0.00027752		-0.00016751		-0.00003551
O		0.99589376		11.89697543		0.00000000		 0.00045855		 0.00078093		0.00000000
O		4.09350606		1.02342487		0.00000000		-0.00045855		-0.00078093		0.00000000
O		1.54880615		5.43677477		4.34779996		-0.00045855		 0.00078093		-0.00000000
O		3.54059367		7.48362450		4.34779996		 0.00045855		-0.00078093		0.00000000
H		4.69802498		3.90971308		0.94347294		-0.00052627		 0.00040978		 0.00052179
H		0.39137485		9.01068670		7.75212648		 0.00052627		-0.00040978		-0.00052179
H		0.39137485		9.01068670		0.94347294		 0.00052627		-0.00040978		 0.00052179
H		4.69802498		3.90971308		7.75212648		-0.00052627		 0.00040978		-0.00052179
H		2.93607476		10.36991373		3.40432702		 0.00052627		 0.00040978		-0.00052179
H		2.15332506		2.55048707		5.29127188		-0.00052627		-0.00040978		 0.00052179
H		2.15332506		2.55048707		3.40432702		-0.00052627		-0.00040978		-0.00052179
H		2.93607476		10.36991373		5.29127188		 0.00052627		 0.00040978		 0.00052179
