# total energy = -49444.0731007 eV

CRYSTAL
PRIMVEC
		5.08939982		0.00000000		0.00000000
		0.00000000		15.36480136		0.00000000
		0.00000000		0.00000000		8.69560094
PRIMECORD
   70 1
Si		2.54469991		0.00000000		0.00000000		0.00000000		0.00000000		0.00000000
Si		0.00000000		7.68239966		4.34779996		0.00000000		0.00000000		0.00000000
Si		2.47349870		5.78515488		0.00000000		-0.00029596		-0.00042202		-0.00000000
Si		2.61590112		9.57964445		0.00000000		 0.00029596		 0.00042202		0.00000000
Si		0.07120121		13.46755454		4.34779996		 0.00029596		-0.00042202		0.00000000
Si		5.01819861		1.89724479		4.34779996		-0.00029596		 0.00042202		0.00000000
Mg		0.86219522		2.66594672		0.00000000		 0.00015727		-0.00015655		0.00000000
Mg		4.22720460		12.69885363		0.00000000		-0.00015727		 0.00015655		0.00000000
Mg		1.68250469		10.34834689		4.34779996		-0.00015727		-0.00015655		0.00000000
Mg		3.40689513		5.01645295		4.34779996		 0.00015727		 0.00015655		0.00000000
Mg		0.80570289		4.96989868		2.81563513		-0.00044787		 0.00024354		-0.00003454
Mg		4.28369694		10.39490167		5.87996480		 0.00044787		-0.00024354		 0.00003454
Mg		4.28369694		10.39490167		2.81563513		 0.00044787		-0.00024354		-0.00003454
Mg		0.80570289		4.96989868		5.87996480		-0.00044787		 0.00024354		 0.00003454
Mg		1.73899703		12.65229732		1.53216483		 0.00044787		 0.00024354		 0.00003454
Mg		3.35040280		2.71250200		7.16343458		-0.00044787		-0.00024354		-0.00003454
Mg		3.35040280		2.71250200		1.53216483		-0.00044787		-0.00024354		 0.00003454
Mg		1.73899703		12.65229732		7.16343458		 0.00044787		 0.00024354		-0.00003454
Mg		2.54469991		7.68239966		2.79363467		0.00000000		0.00000000		-0.00007992
Mg		2.54469991		7.68239966		5.90196373		0.00000000		0.00000000		 0.00007992
Mg		0.00000000		0.00000000		1.55416478		0.00000000		0.00000000		 0.00007992
Mg		0.00000000		0.00000000		7.14143463		0.00000000		0.00000000		-0.00007992
Mg		2.54469991		0.00000000		2.97293881		0.00000000		0.00000000		 0.00043330
Mg		2.54469991		0.00000000		5.72266061		0.00000000		0.00000000		-0.00043330
Mg		0.00000000		7.68239966		1.37486116		0.00000000		0.00000000		-0.00043330
Mg		0.00000000		7.68239966		7.32073775		0.00000000		0.00000000		 0.00043330
O		1.69075002		6.34842776		1.35755720		 0.00007926		-0.00012862		-0.00016615
O		3.39864980		9.01637156		7.33804273		-0.00007926		 0.00012862		 0.00016615
O		3.39864980		9.01637156		1.35755720		-0.00007926		 0.00012862		-0.00016615
O		1.69075002		6.34842776		7.33804273		 0.00007926		-0.00012862		 0.00016615
O		0.85394989		14.03082743		2.99024277		-0.00007926		-0.00012862		 0.00016615
O		4.23544892		1.33397190		5.70535665		 0.00007926		 0.00012862		-0.00016615
O		4.23544892		1.33397190		2.99024277		 0.00007926		 0.00012862		 0.00016615
O		0.85394989		14.03082743		5.70535665		-0.00007926		-0.00012862		-0.00016615
O		2.50953216		3.98301672		0.00000000		-0.00014670		 0.00013024		-0.00000000
O		2.57986715		11.38178261		0.00000000		 0.00014670		-0.00013024		-0.00000000
O		0.03516775		11.66541740		4.34779996		 0.00014670		 0.00013024		0.00000000
O		5.05423207		3.69938294		4.34779996		-0.00014670		-0.00013024		0.00000000
O		4.02780191		6.36870953		0.00000000		-0.00065783		 0.00008361		0.00000000
O		1.06159791		8.99609081		0.00000000		 0.00065783		-0.00008361		0.00000000
O		3.60629782		14.05110970		4.34779996		 0.00065783		 0.00008361		0.00000000
O		1.48310200		1.31369013		4.34779996		-0.00065783		-0.00008361		0.00000000
O		1.81386210		1.12270582		1.25773218		 0.00045988		-0.00005197		-0.00030508
O		3.27553773		14.24209452		7.43786774		-0.00045988		 0.00005197		 0.00030508
O		3.27553773		14.24209452		1.25773218		-0.00045988		 0.00005197		-0.00030508
O		1.81386210		1.12270582		7.43786774		 0.00045988		-0.00005197		 0.00030508
O		0.73083781		8.80510549		3.09006778		-0.00045988		-0.00005197		 0.00030508
O		4.35856201		6.55969384		5.60553062		 0.00045988		 0.00005197		-0.00030508
O		4.35856201		6.55969384		3.09006778		 0.00045988		 0.00005197		 0.00030508
O		0.73083781		8.80510549		5.60553062		-0.00045988		-0.00005197		-0.00030508
O		5.00058979		3.86962489		1.38433914		 0.00004378		 0.00028303		-0.00006221
O		0.08881003		11.49517443		7.31125976		-0.00004378		-0.00028303		 0.00006221
O		0.08881003		11.49517443		1.38433914		-0.00004378		-0.00028303		-0.00006221
O		5.00058979		3.86962489		7.31125976		 0.00004378		 0.00028303		 0.00006221
O		2.63350994		11.55202456		2.96345980		-0.00004378		 0.00028303		 0.00006221
O		2.45588988		3.81277477		5.73213860		 0.00004378		-0.00028303		-0.00006221
O		2.45588988		3.81277477		2.96345980		 0.00004378		-0.00028303		 0.00006221
O		2.63350994		11.55202456		5.73213860		-0.00004378		 0.00028303		-0.00006221
O		0.99589376		14.14775435		0.00000000		 0.00048823		-0.00031467		-0.00000000
O		4.09350606		1.21704599		0.00000000		-0.00048823		 0.00031467		0.00000000
O		1.54880615		6.46535469		4.34779996		-0.00048823		-0.00031467		0.00000000
O		3.54059367		8.89944566		4.34779996		 0.00048823		 0.00031467		0.00000000
H		4.69802498		4.64938864		0.94347294		 0.00000162		-0.00021232		 0.00022960
H		0.39137485		10.71541069		7.75212648		-0.00000162		 0.00021232		-0.00022960
H		0.39137485		10.71541069		0.94347294		-0.00000162		 0.00021232		 0.00022960
H		4.69802498		4.64938864		7.75212648		 0.00000162		-0.00021232		-0.00022960
H		2.93607476		12.33178881		3.40432702		-0.00000162		-0.00021232		-0.00022960
H		2.15332506		3.03301205		5.29127188		 0.00000162		 0.00021232		 0.00022960
H		2.15332506		3.03301205		3.40432702		 0.00000162		 0.00021232		-0.00022960
H		2.93607476		12.33178881		5.29127188		-0.00000162		-0.00021232		 0.00022960
