# total energy = -117580.293426 eV

CRYSTAL
PRIMVEC
		10.58800155		1.27055763		0.00000000
		1.69163479		14.09699922		0.00000000
		-2.45393737		-0.29447462		9.76952122
PRIMECORD
   156 1
Si		8.18497713		0.99595210		0.72441033		 0.00026944		 0.00018579		-0.00008519
Si		1.64073037		14.07713546		9.04511089		-0.00026944		-0.00018579		 0.00008519
Si		2.02522588		7.20378288		4.16035028		-0.00036333		-0.00010076		 0.00014230
Si		7.80048055		7.86930362		5.60917094		 0.00036333		 0.00010076		-0.00014230
Si		3.93572994		3.10714550		6.58055434		-0.00003071		 0.00008842		 0.00017966
Si		5.88997649		11.96594206		3.18896688		 0.00003071		-0.00008842		-0.00017966
Si		4.45879509		10.11691574		8.07372642		 0.00011388		 0.00003678		-0.00013469
Si		5.36691241		4.95617182		1.69579267		-0.00011388		-0.00003678		 0.00013469
Si		1.42413999		1.91459368		4.16914271		 0.00032458		 0.00014308		-0.00011094
Si		8.40156537		13.15849388		5.60037744		-0.00032458		-0.00014308		 0.00011094
Si		9.20731506		9.79557541		0.71561683		-0.00026496		-0.00018729		 0.00023116
Si		0.61839243		5.27751109		9.05390332		 0.00026496		 0.00018729		-0.00023116
Si		7.07387237		2.56241225		5.59793539		-0.00049402		 0.00039289		-0.00008800
Si		2.75183512		12.51067532		4.17158476		 0.00049402		-0.00039289		 0.00008800
Si		1.09630850		8.79210628		9.05634537		-0.00006438		-0.00001058		-0.00034110
Si		8.72939899		6.28098235		0.71317478		 0.00006438		 0.00001058		 0.00034110
Mg		4.06703315		0.48804364		4.88475954		0.00000000		0.00000000		0.00000000
Mg		6.13982030		7.68377949		0.00000000		0.00000000		0.00000000		0.00000000
Mg		4.69093352		2.98755451		3.48175979		 0.00013204		-0.00017495		-0.00055255
Mg		5.13477291		12.08553412		6.28776036		-0.00013204		 0.00017495		 0.00055255
Mg		6.10633546		10.10440478		1.40300082		-0.00020663		 0.00006877		 0.00069423
Mg		3.71937097		4.96868385		8.36651933		 0.00020663		-0.00006877		-0.00069423
Mg		5.29399971		0.63527988		0.00000000		0.00000000		0.00000000		0.00000000
Mg		4.91285268		7.53654432		4.88475954		0.00000000		0.00000000		0.00000000
Mg		6.19586475		0.77810018		2.86383657		 0.00020073		 0.00035036		-0.00033545
Mg		3.62984062		14.29498739		6.90568358		-0.00020073		-0.00035036		 0.00033545
Mg		4.01941217		7.46392701		2.02092297		-0.00088530		 0.00002527		 0.00000608
Mg		5.80629426		7.60916056		7.74859825		 0.00088530		-0.00002527		-0.00000608
Mg		0.42230138		0.05553897		1.48887450		-0.00012430		 0.00004067		-0.00002497
Mg		9.40340611		15.01754859		8.28064565		 0.00012430		-0.00004067		 0.00002497
Mg		9.78573684		8.12615258		3.39588504		-0.00044757		-0.00028361		-0.00045385
Mg		0.03996959		6.94693498		6.37363618		 0.00044757		 0.00028361		 0.00045385
Mg		-0.86779582		-0.09927295		6.20091093		 0.00019874		-0.00035050		 0.00041559
Mg		10.69350225		15.17236051		3.56861028		-0.00019874		 0.00035050		-0.00041559
Mg		8.62189987		7.98649309		8.45337089		 0.00032638		 0.00002198		 0.00018431
Mg		1.20380656		7.08659555		1.31615033		-0.00032638		-0.00002198		-0.00018431
Mg		3.19872653		0.42233444		2.10484301		-0.00005409		 0.00027151		-0.00055228
Mg		6.62697990		14.65075419		7.66467821		 0.00005409		-0.00027151		 0.00055228
Mg		7.01749841		7.82758834		2.77991653		-0.00051098		 0.00003890		 0.00018395
Mg		2.80820802		7.24550029		6.98960362		 0.00051098		-0.00003890		-0.00018395
Mg		6.85861712		3.18418089		1.20761040		-0.00045791		 0.00025984		 0.00030490
Mg		2.96708931		11.88890668		8.56190975		 0.00045791		-0.00025984		-0.00030490
Mg		3.92319125		9.77893110		3.67715021		-0.00014796		-0.00020904		 0.00006902
Mg		5.90251624		5.29415647		6.09237101		 0.00014796		 0.00020904		-0.00006902
Mg		-1.34520962		2.24265445		9.47360163		-0.00008689		-0.00000331		 0.00007710
Mg		11.17091711		12.83043419		0.29591852		 0.00008689		 0.00000331		-0.00007710
Mg		9.68353877		10.51310535		5.18067913		 0.00063047		 0.00046931		 0.00007706
Mg		0.14216766		4.55998221		4.58884209		-0.00063047		-0.00046931		-0.00007706
Mg		0.76869350		2.55426072		7.34638670		-0.00014500		-0.00001382		-0.00033092
Mg		9.05701293		12.51882685		2.42313345		 0.00014500		 0.00001382		 0.00033092
Mg		7.58374407		10.31906925		7.30789513		 0.00010786		-0.00005250		 0.00025280
Mg		2.24196342		4.75402045		2.46162609		-0.00010786		 0.00005250		-0.00025280
Mg		6.30166617		3.20057246		8.74235357		-0.00038777		 0.00015495		 0.00003823
Mg		3.52404133		11.87251617		1.02716658		 0.00038777		-0.00015495		-0.00003823
Mg		2.04647382		9.63695112		5.91192826		-0.00002237		 0.00010559		 0.00005282
Mg		7.77923154		5.43613751		3.85759296		 0.00002237		-0.00010559		-0.00005282
Mg		3.89045182		2.80896623		0.44060501		 0.00016522		 0.00044875		 0.00065265
Mg		5.93525354		12.26412134		9.32891621		-0.00016522		-0.00044875		-0.00065265
Mg		6.88672093		10.11551983		4.44415454		-0.00042948		-0.00074368		 0.00018937
Mg		2.93898550		4.95756774		5.32536562		 0.00042948		 0.00074368		-0.00018937
Mg		9.70484963		3.63076731		1.94237544		 0.00034416		-0.00030537		-0.00033824
Mg		0.12085680		11.44232025		7.82714472		-0.00034416		 0.00030537		 0.00033824
Mg		1.10253626		9.54549166		2.94238411		-0.00031557		-0.00029178		 0.00026943
Mg		8.72317124		5.52759591		6.82713604		 0.00031557		 0.00029178		-0.00026943
O		3.76111717		1.49616332		6.54167141		 0.00052695		-0.00018806		 0.00003833
O		6.06459032		13.57692425		3.22784981		-0.00052695		 0.00018806		-0.00003833
O		4.24622609		8.50137791		8.11260935		-0.00011229		-0.00031379		-0.00001451
O		5.57948141		6.57170965		1.65691080		 0.00011229		 0.00031379		 0.00001451
O		5.86967551		1.91174961		4.50667947		-0.00017521		 0.00008577		-0.00052536
O		3.95603092		13.16133796		5.26284068		 0.00017521		-0.00008577		 0.00052536
O		4.63118441		8.71013241		0.37808114		-0.00030668		-0.00024692		-0.00014671
O		5.19452201		6.36295515		9.39144115		 0.00030668		 0.00024692		 0.00014671
O		7.29339321		4.20976814		5.59402812		 0.00015302		 0.00031333		-0.00014070
O		2.53231322		10.86331943		4.17549310		-0.00015302		-0.00031333		 0.00014070
O		1.27151418		10.43414405		9.06025371		 0.00002790		 0.00001793		 0.00006474
O		8.55419331		4.63894351		0.70926751		-0.00002790		-0.00001793		-0.00006474
O		6.64687458		1.98972982		7.12100388		 0.00001071		 0.00048700		 0.00032120
O		3.17883185		13.08335775		2.64851734		-0.00001071		-0.00048700		-0.00032120
O		1.39633051		8.30666678		7.53327688		-0.00012163		 0.00039807		-0.00055554
O		8.42937591		6.76642078		2.23624327		 0.00012163		-0.00039807		 0.00055554
O		1.64608368		3.56682620		4.15106943		 0.00016942		 0.00006541		 0.00020013
O		8.17962275		11.50626136		5.61845072		-0.00016942		-0.00006541		-0.00020013
O		9.38121441		11.44204299		0.73369118		 0.00038026		-0.00005642		-0.00037816
O		0.44449202		3.63104458		9.03583004		-0.00038026		 0.00005642		 0.00037816
O		2.88137132		1.56148968		3.75344979		 0.00025879		-0.00033873		 0.00054837
O		6.94433511		13.51159896		6.01607143		-0.00025879		 0.00033873		-0.00054837
O		7.62151902		9.07730858		1.13130976		-0.00042843		 0.00044322		 0.00061487
O		2.20418741		5.99577898		8.63820933		 0.00042843		-0.00044322		-0.00061487
O		0.94784911		1.32391049		5.68195247		 0.00039696		 0.00030859		-0.00013161
O		8.87785732		13.74917814		4.08756661		-0.00039696		-0.00030859		 0.00013161
O		7.09975381		9.00914028		8.97232829		 0.00052977		 0.00014707		 0.00015742
O		2.72595156		6.06394835		0.79719293		-0.00052977		-0.00014707		-0.00015742
O		0.22428443		1.25097646		3.09791478		 0.00008643		 0.00007850		 0.00008543
O		9.60142200		13.82211217		6.67160537		-0.00008643		-0.00007850		-0.00008543
O		10.28063634		9.40474017		1.78684476		-0.00017094		 0.00028171		 0.00049174
O		-0.45492991		5.66834739		7.98267539		 0.00017094		-0.00028171		-0.00049174
O		4.39167932		3.87962470		5.17100691		 0.00037726		 0.00052675		 0.00040755
O		5.43402818		11.19346393		4.59851430		-0.00037726		-0.00052675		-0.00040755
O		4.17762589		10.80093952		9.48327385		-0.00000067		 0.00041141		-0.00026091
O		5.64807947		4.27214804		0.28624737		 0.00000067		-0.00041141		 0.00026091
O		5.05852026		3.92213232		7.61534139		-0.00020514		-0.00012032		 0.00042813
O		4.76718617		11.15095631		2.15417876		 0.00020514		 0.00012032		-0.00042813
O		3.50165021		10.68230935		7.03893937		 0.00016966		-0.00019976		 0.00005211
O		6.32405729		4.39077928		2.73058078		-0.00016966		 0.00019976		-0.00005211
O		5.01775407		1.78451042		1.68133447		 0.00011622		 0.00028747		 0.00024548
O		4.80795343		13.28857821		8.08818568		-0.00011622		-0.00028747		-0.00024548
O		5.47701674		8.78662287		3.20342614		-0.00001675		-0.00007891		 0.00027897
O		4.34868969		6.28646469		6.56609508		 0.00001675		 0.00007891		-0.00027897
O		4.80505283		1.61031995		9.47448034		-0.00001569		 0.00020825		 0.00071570
O		5.02065360		13.46276761		0.29503981		 0.00001569		-0.00020825		-0.00071570
O		3.19958285		8.36466593		5.17980042		-0.00005153		 0.00051800		 0.00009005
O		6.62612358		6.70842270		4.58972080		 0.00005153		-0.00051800		-0.00009005
O		7.98432190		2.00989537		2.14147905		-0.00058250		 0.00004959		-0.00044136
O		1.84138453		13.06319326		7.62804217		 0.00058250		-0.00004959		 0.00044136
O		2.47864577		8.29621503		2.74328049		-0.00023218		 0.00030140		-0.00009850
O		7.34705959		6.77687253		7.02623966		 0.00023218		-0.00030140		 0.00009850
O		-0.98260615		0.87411848		8.03054591		-0.00000820		-0.00037890		-0.00042324
O		10.80831258		14.19896909		1.73897424		 0.00000820		 0.00037890		 0.00042324
O		8.97709188		9.01628407		6.62373485		-0.00036539		-0.00027368		-0.00043584
O		0.84861455		6.05680350		3.14578637		 0.00036539		 0.00027368		 0.00043584
O		9.78809144		2.28053390		0.27256978		 0.00033313		-0.00021775		 0.00042657
O		0.03761499		12.79255473		9.49695038		-0.00033313		 0.00021775		-0.00042657
O		0.68807075		8.13553154		4.61219083		-0.00027426		-0.00035829		 0.00050861
O		9.13763568		6.93755496		5.15733038		 0.00027426		 0.00035829		-0.00050861
O		1.48224152		1.19768865		8.63430312		 0.00044286		-0.00018101		-0.00000927
O		8.34346385		13.87539892		1.13521810		-0.00044286		 0.00018101		 0.00000927
O		6.51900942		8.74910279		6.01997764		-0.00009707		 0.00042681		 0.00016563
O		3.30669700		6.32398584		3.74954144		 0.00009707		-0.00042681		-0.00016563
O		2.15961952		1.27202712		0.69461309		-0.00011804		 0.00004901		 0.00034706
O		7.66608585		13.80106045		9.07490813		 0.00011804		-0.00004901		-0.00034706
O		8.29387430		8.95513905		4.19014752		-0.00009639		-0.00038292		 0.00030873
O		1.53183213		6.11794852		5.57937263		 0.00009639		 0.00038292		-0.00030873
O		2.61723247		3.63751440		6.99009203		 0.00016588		 0.00060744		 0.00016018
O		7.20847396		11.43557530		2.77942919		-0.00016588		-0.00060744		-0.00016018
O		5.94496734		10.98384245		7.66418873		 0.00010029		 0.00031324		 0.00012999
O		3.88073909		4.08924512		2.10533249		-0.00010029		-0.00031324		-0.00012999
O		8.49924512		2.20367767		5.16319236		-0.00041631		 0.00023601		-0.00016133
O		1.32646238		12.86940883		4.60632885		 0.00041631		-0.00023601		 0.00016133
O		-0.45807044		8.07580269		9.49108840		 0.00003928		-0.00037607		 0.00017985
O		10.28377581		6.99728594		0.27843175		-0.00003928		 0.00037607		-0.00017985
O		-0.42920097		3.39004119		6.22220793		 0.00040527		 0.00012825		-0.00023949
O		10.25490740		11.68304744		3.54731329		-0.00040527		-0.00012825		 0.00023949
O		9.02015935		11.47096472		8.43207283		-0.00040733		 0.00013116		 0.00045626
O		0.80554708		3.60212285		1.33744732		 0.00040733		-0.00013116		-0.00045626
O		9.28672745		4.56151036		3.55512890		-0.00009876		 0.00009894		 0.00041158
O		0.53897791		10.51157934		6.21439231		 0.00009876		-0.00009894		-0.00041158
O		1.75951730		10.60524624		1.32963170		 0.00068263		 0.00035078		 0.00014172
O		8.06619020		4.46784239		8.43988845		-0.00068263		-0.00035078		-0.00014172
H		-0.88117376		2.57580192		5.86171273		 0.00026193		-0.00050654		-0.00002625
H		10.70688125		12.49728565		3.90780742		-0.00026193		 0.00050654		 0.00002625
H		9.28706656		10.74299262		8.79256910		-0.00045034		 0.00011084		 0.00024820
H		0.53863987		4.33009601		0.97695212		 0.00045034		-0.00011084		-0.00024820
H		9.04404236		3.91966148		4.06412083		 0.00000574		-0.00023658		-0.00022812
H		0.78166407		11.15342609		5.70540039		-0.00000574		 0.00023658		 0.00022812
H		1.85299971		10.00373806		0.82063978		-0.00009722		-0.00015944		 0.00002617
H		7.97270565		5.06934951		8.94888037		 0.00009722		 0.00015944		-0.00002617
