# total energy = -117592.20521 eV

CRYSTAL
PRIMVEC
		10.58799680		-0.84703762		0.00000000
		-1.12776189		14.09700244		0.00000000
		-2.45392890		0.19631261		9.76952128
PRIMECORD
   156 1
Si		8.18218584		-0.64070756		0.72440969		-0.00032893		-0.00023583		 0.00015885
Si		-1.17587877		14.08698287		9.04511053		 0.00032893		 0.00023583		-0.00015885
Si		0.61273498		6.96823632		4.16034989		-0.00012021		 0.00015789		 0.00000368
Si		6.39357209		6.47803686		5.60917139		 0.00012021		-0.00015789		-0.00000368
Si		3.40105919		2.38416049		6.58055343		-0.00002987		 0.00018043		 0.00033152
Si		3.60524788		11.06211375		3.18896679		 0.00002987		-0.00018043		-0.00033152
Si		2.51442446		9.45848125		8.07372636		 0.00007626		-0.00008360		-0.00039416
Si		4.49188261		3.98779406		1.69579279		-0.00007626		 0.00008360		 0.00039416
Si		1.07030631		1.67222614		4.16914264		-0.00024215		-0.00007462		-0.00001863
Si		5.93600077		11.77404916		5.60037758		 0.00024215		 0.00007462		 0.00001863
Si		7.44377978		8.16573794		0.71561694		-0.00004527		-0.00028332		 0.00003233
Si		-0.43747377		5.28053736		9.05390328		 0.00004527		 0.00028332		-0.00003233
Si		6.72615531		1.18936424		5.59793562		-0.00009195		 0.00004144		 0.00019544
Si		0.28015176		12.25691106		4.17158460		 0.00009195		-0.00004144		-0.00019544
Si		-0.66110891		8.78373391		9.05634630		-0.00028971		-0.00012787		-0.00000578
Si		7.66741491		4.66254033		0.71317498		 0.00028971		 0.00012787		 0.00000578
Mg		4.06703289		-0.32536250		4.88475958		0.00000000		0.00000000		0.00000000
Mg		4.73011958		6.62498028		0.00000000		0.00000000		0.00000000		0.00000000
Mg		4.19891987		2.10840936		3.48175958		-0.00033544		-0.00004074		-0.00012724
Mg		2.80738614		11.33786489		6.28776063		 0.00033544		 0.00004074		 0.00012724
Mg		4.20462167		9.11134293		1.40300106		-0.00007276		-0.00063490		 0.00011470
Mg		2.80168434		4.33493237		8.36652022		 0.00007276		 0.00063490		-0.00011470
Mg		5.29399946		-0.42351987		0.00000000		0.00000000		0.00000000		0.00000000
Mg		3.50315300		6.72313659		4.88475958		0.00000000		0.00000000		0.00000000
Mg		6.18884487		-0.46023103		2.86383690		 0.00007930		 0.00035920		 0.00057108
Mg		0.81746114		13.90650527		6.90568438		-0.00007930		-0.00035920		-0.00057108
Mg		2.60269184		6.83005059		2.02092268		-0.00034817		 0.00038048		-0.00007383
Mg		4.40361417		6.61622259		7.74859754		 0.00034817		-0.00038048		 0.00007383
Mg		0.42131372		-0.02880321		1.48887534		-0.00010378		-0.00008015		 0.00011388
Mg		6.58499229		13.47507745		8.28064593		 0.00010378		 0.00008015		-0.00011388
Mg		8.37504955		6.33828760		3.39588529		 0.00001682		-0.00034324		-0.00028227
Mg		-1.36874354		7.10798664		6.37363598		-0.00001682		 0.00034324		 0.00028227
Mg		-0.86878262		0.07440484		6.20091126		 0.00041350		-0.00011803		-0.00013141
Mg		7.87508863		13.37186940		3.56861002		-0.00041350		 0.00011803		 0.00013141
Mg		7.21121274		6.43139536		8.45337065		-0.00050753		-0.00023643		 0.00003335
Mg		-0.20490567		7.01487995		1.31614956		 0.00050753		 0.00023643		-0.00003335
Mg		3.19091695		-0.21647497		2.10484255		-0.00022669		 0.00009635		-0.00026891
Mg		3.81539012		13.66274921		7.66467767		 0.00022669		-0.00009635		 0.00026891
Mg		5.59998882		6.59418867		2.77991703		 0.00007574		 0.00023825		-0.00023320
Mg		1.40631825		6.85208451		6.98960425		-0.00007574		-0.00023825		 0.00023320
Mg		6.37948861		1.86995252		1.20761042		-0.00012210		 0.00006183		-0.00015838
Mg		0.62681846		11.57632172		8.56190980		 0.00012210		-0.00006183		 0.00015838
Mg		2.03436247		9.22095276		3.67715022		-0.00024269		 0.00028113		-0.00001452
Mg		4.97194460		4.22532148		6.09237106		 0.00024269		-0.00028113		 0.00001452
Mg		-1.83305123		2.57023685		9.47360142		 0.00012827		-0.00067515		 0.00027390
Mg		8.83935830		10.87603633		0.29591880		-0.00012827		 0.00067515		-0.00027390
Mg		7.78599806		8.80410233		5.18067838		 0.00013011		 0.00009424		-0.00039386
Mg		-0.77969099		4.64217191		4.58884184		-0.00013011		-0.00009424		 0.00039386
Mg		0.26909550		2.46047407		7.34638718		-0.00004020		 0.00012028		-0.00024763
Mg		6.73721051		10.98580123		2.42313410		 0.00004020		-0.00012028		 0.00024763
Mg		5.67444570		9.03143599		7.30789474		-0.00005934		 0.00031294		 0.00000027
Mg		1.33186137		4.41483931		2.46162548		 0.00005934		-0.00031294		-0.00000027
Mg		5.80564864		1.99976081		8.74235340		-0.00006663		-0.00029871		-0.00032636
Mg		1.20065843		11.44651343		1.02716682		 0.00006663		 0.00029871		 0.00032636
Mg		0.14075727		9.45634201		5.91192746		-0.00032686		-0.00002459		-0.00004054
Mg		6.86554874		3.98993329		3.85759276		 0.00032686		 0.00002459		 0.00004054
Mg		3.41518622		2.08790817		0.44060508		 0.00020195		 0.00008993		-0.00018472
Mg		3.59112085		11.35836714		9.32891620		-0.00020195		-0.00008993		 0.00018472
Mg		5.00175476		8.96437190		4.44415450		 0.00000209		-0.00078829		-0.00009173
Mg		2.00455231		4.48190341		5.32536572		-0.00000209		 0.00078829		 0.00009173
Mg		9.20440607		1.74985046		1.94237639		-0.00020444		 0.00032570		-0.00051006
Mg		-2.19810007		11.69642379		7.82714489		 0.00020444		-0.00032570		 0.00051006
Mg		-0.80760833		9.55420197		2.94238425		-0.00029410		-0.00003615		-0.00002528
Mg		7.81391434		3.89207334		6.82713596		 0.00029410		 0.00003615		 0.00002528
O		3.54909772		0.76938250		6.54167117		 0.00044078		-0.00006524		 0.00006792
O		3.45720935		12.67689174		3.22785011		-0.00044078		 0.00006524		-0.00006792
O		2.62450695		7.84673898		8.11260969		-0.00002881		-0.00013656		 0.00013366
O		4.38180012		5.59953633		1.65691053		 0.00002881		 0.00013656		-0.00013366
O		5.62466970		0.76721565		4.50667988		 0.00026074		-0.00001392		-0.00007682
O		1.38163738		12.67905859		5.26284140		-0.00026074		 0.00001392		 0.00007682
O		2.97647926		7.98245938		0.37808076		-0.00012784		-0.00003046		-0.00004738
O		4.02982675		5.46381380		9.39144052		 0.00012784		 0.00003046		 0.00004738
O		6.61673668		2.83228795		5.59402785		 0.00056109		-0.00016587		-0.00038849
O		0.38956933		10.61398629		4.17549343		-0.00056109		 0.00016587		 0.00038849
O		-0.81484180		10.43020425		9.06025407		-0.00005160		-0.00009912		 0.00038396
O		7.82114887		3.01607106		0.70926721		 0.00005160		 0.00009912		-0.00038396
O		6.40497037		0.68938421		7.12100369		 0.00031189		-0.00024306		 0.00005182
O		0.60133670		12.75689109		2.64851653		-0.00031189		 0.00024306		-0.00005182
O		-0.25527438		8.22559300		7.53327717		 0.00019150		-0.00013589		 0.00007929
O		7.26157932		5.22068230		2.23624305		-0.00019150		 0.00013589		-0.00007929
O		0.96237898		3.31965350		4.15106854		 0.00039503		-0.00015044		 0.00011412
O		6.04392703		10.12662074		5.61845062		-0.00039503		 0.00015044		-0.00011412
O		7.28780993		9.81700828		0.73369104		-0.00023113		-0.00027703		 0.00016431
O		-0.28150392		3.62926596		9.03583024		 0.00023113		 0.00027703		-0.00016431
O		2.63467310		1.01481894		3.75344999		-0.00035243		-0.00014870		 0.00019869
O		4.37163291		12.43145530		6.01607129		 0.00035243		 0.00014870		-0.00019869
O		5.96512157		7.75177241		1.13130958		-0.00010236		-0.00026421		 0.00025920
O		1.04118550		5.69450184		8.63820957		 0.00010236		 0.00026421		-0.00025920
O		0.70227911		1.16380813		5.68195321		 0.00044812		 0.00003759		 0.00032084
O		6.30402690		12.28246611		4.08756701		-0.00044812		-0.00003759		-0.00032084
O		5.44448527		7.78782182		8.97232765		-0.00017536		-0.00024558		 0.00000494
O		1.56182181		5.65845242		0.79719257		 0.00017536		 0.00024558		-0.00000494
O		-0.02410517		1.23592609		3.09791542		 0.00012770		-0.00011083		-0.00042809
O		7.03041225		12.21034922		6.67160586		-0.00012770		 0.00011083		 0.00042809
O		8.62254662		7.54758265		1.78684522		 0.00005827		-0.00014832		-0.00009834
O		-1.61624061		5.89869053		7.98267500		-0.00005827		 0.00014832		 0.00009834
O		3.71135781		3.08292696		5.17100720		 0.00028589		 0.00019568		 0.00044838
O		3.29494926		10.36334728		4.59851408		-0.00028589		-0.00019568		-0.00044838
O		2.08760544		10.21621692		9.48327365		 0.00021291		-0.00013854		-0.00032102
O		4.91870163		3.23005839		0.28624656		-0.00021291		 0.00013854		 0.00032102
O		4.38581198		2.99115331		7.61534141		 0.00012015		-0.00009226		 0.00018482
O		2.62049509		10.45512199		2.15417881		-0.00012015		 0.00009226		-0.00018482
O		1.41924077		10.23186818		7.03893945		 0.00006496		 0.00023236		-0.00015682
O		5.58706630		3.21440713		2.73058077		-0.00006496		-0.00023236		 0.00015682
O		4.77782327		0.80975076		1.68133436		-0.00022607		-0.00036010		-0.00002495
O		2.22848274		12.63652348		8.08818586		 0.00022607		 0.00036010		 0.00002495
O		3.82738641		7.88917530		3.20342628		 0.00006819		-0.00034173		-0.00000202
O		3.17892066		5.55709894		6.56609500		-0.00006819		 0.00034173		 0.00000202
O		4.59529035		0.67448072		9.47448090		 0.00003592		-0.00039346		-0.00005578
O		2.41101672		12.77179246		0.29504037		-0.00003592		 0.00039346		 0.00005578
O		1.58011897		7.91908530		5.17979995		-0.00009961		 0.00045305		-0.00042091
O		5.42618704		5.52719000		4.58972133		 0.00009961		-0.00045305		 0.00042091
O		7.77089276		0.43864217		2.14147935		-0.00000736		-0.00000181		 0.00005098
O		-0.76458569		13.00763314		7.62804193		 0.00000736		 0.00000181		-0.00005098
O		0.85551809		7.99526080		2.74328129		 0.00017462		 0.00005559		 0.00002329
O		6.15078898		5.45101344		7.02623999		-0.00017462		-0.00005559		-0.00002329
O		-1.18391100		1.09479705		8.03054545		 0.00012304		-0.00015026		-0.00053019
O		8.19021807		12.35147825		1.73897370		-0.00012304		 0.00015026		 0.00053019
O		7.36608642		7.41418736		6.62373434		 0.00028550		-0.00004798		-0.00007928
O		-0.35978041		6.03208794		3.14578587		-0.00028550		 0.00004798		 0.00007928
O		9.56366814		0.34984582		0.27256990		-0.00040031		-0.00040297		 0.00008071
O		-2.55736107		13.09642843		9.49695032		 0.00040031		 0.00040297		-0.00008071
O		-0.94605429		8.19401325		4.61219074		-0.00044885		-0.00017129		 0.00025327
O		7.95236030		5.25226099		5.15732947		 0.00044885		 0.00017129		-0.00025327
O		1.27529908		0.92607357		8.63430286		 0.00041589		 0.00007395		 0.00029615
O		5.73100800		12.52020067		1.13521842		-0.00041589		-0.00007395		-0.00029615
O		4.90236632		7.63929788		6.01997799		-0.00025206		-0.00059825		-0.00022578
O		2.10394075		5.80697637		3.74954222		 0.00025206		 0.00059825		 0.00022578
O		1.95408589		0.86476651		0.69461334		 0.00018009		-0.00017969		-0.00015863
O		5.05222012		12.58150773		9.07490794		-0.00018009		 0.00017969		 0.00015863
O		6.67863963		7.49019291		4.19014837		 0.00032600		-0.00049694		-0.00009854
O		0.32766744		5.95608239		5.57937291		-0.00032600		 0.00049694		 0.00009854
O		1.94283313		3.19499467		6.99009179		 0.00011936		-0.00004762		 0.00043393
O		5.06347395		10.25127957		2.77942843		-0.00011936		 0.00004762		-0.00043393
O		3.86086641		10.04494207		7.66418907		 0.00004139		-0.00039629		-0.00032959
O		3.14543960		3.40133323		2.10533221		-0.00004139		 0.00039629		 0.00032959
O		8.25903158		0.53265490		5.16319166		 0.00033000		 0.00004928		 0.00054638
O		-1.25272451		12.91361934		4.60632856		-0.00033000		-0.00004928		-0.00054638
O		-2.10798236		8.36540599		9.49108919		 0.00009320		-0.00031392		 0.00027207
O		9.11428837		5.08086931		0.27843208		-0.00009320		 0.00031392		-0.00027207
O		-1.12756645		3.55968449		6.22220803		-0.00004131		-0.00038623		 0.00025388
O		8.13387246		9.88659081		3.54731325		 0.00004131		 0.00038623		-0.00025388
O		6.91209359		9.91990086		8.43207283		-0.00026528		 0.00004241		 0.00006138
O		0.09421348		3.52637338		1.33744739		 0.00026528		-0.00004241		-0.00006138
O		8.58723436		2.78810327		3.55512879		-0.00037901		-0.00055356		 0.00053431
O		-1.58092941		10.65817203		6.21439142		 0.00037901		 0.00055356		-0.00053431
O		-0.34967587		10.50644454		1.32963185		-0.00009637		 0.00015248		-0.00031106
O		7.35598294		2.93982864		8.43988837		 0.00009637		-0.00015248		 0.00031106
H		-1.42531752		2.81733348		5.86171277		-0.00001034		 0.00017321		-0.00008397
H		8.43162459		10.62894076		3.90780745		 0.00001034		-0.00017321		 0.00008397
H		7.33322249		9.12004115		8.79256915		-0.00086103		 0.00005709		 0.00040011
H		-0.32691648		4.32623416		0.97695213		 0.00086103		-0.00005709		-0.00040011
H		8.46888490		2.17987195		4.06412038		 0.00002831		-0.00031505		 0.00027134
H		-1.46257782		11.26640229		5.70539983		-0.00002831		 0.00031505		-0.00027134
H		-0.13185724		9.87132087		0.82064025		-0.00029128		-0.00025700		 0.00031709
H		7.13816431		3.57495443		8.94888102		 0.00029128		 0.00025700		-0.00031709
