# total energy = -41267.0591203 eV	

CRYSTAL	
PRIMVEC	
		5.69829968		0.00000000		0.00000000	
		0.00000000		10.29420061		0.00000000	
		0.00000000		0.00000000		8.25659691	
PRIMCOORD
   56 1	
Mg		0.00000000		0.00000000		0.00000000		0.00000000		0.00000000		0.00000000	
Mg		0.00000000		5.14709974		0.00000000		0.00000000		0.00000000		0.00000000	
Mg		2.84914984		5.14709974		4.12829960		0.00000000		0.00000000		0.00000000	
Mg		2.84914984		0.00000000		4.12829960		0.00000000		0.00000000		0.00000000	
Mg		0.00000000		2.57354987		8.00972777		0.00000000		 0.00000916		 0.00015586	
Mg		0.00000000		7.72064960		0.24687200		0.00000000		-0.00000916		-0.00015586	
Mg		2.84914984		7.72064960		3.88142760		-0.00000000		-0.00000922		 0.00015588	
Mg		2.84914984		2.57354987		4.37517273		-0.00000000		 0.00000922		-0.00015588	
Mg		1.42457492		1.31354013		2.06414980		 0.00000001		-0.00074317		-0.00000002	
Mg		4.27372476		8.98065934		6.19244939		-0.00000001		 0.00074317		 0.00000002	
Mg		4.27372476		3.83355960		2.06414980		-0.00000002		 0.00083218		 0.00000003	
Mg		1.42457492		6.46063987		6.19244939		 0.00000002		-0.00083218		-0.00000003	
Mg		4.27372476		6.46063987		6.19244939		-0.00000002		-0.00083218		-0.00000003	
Mg		1.42457492		3.83355960		2.06414980		 0.00000002		 0.00083218		 0.00000003	
Mg		1.42457492		8.98065934		6.19244939		 0.00000001		 0.00074317		 0.00000002	
Mg		4.27372476		1.31354013		2.06414980		-0.00000001		-0.00074317		-0.00000002	
Si		0.00000000		1.23324482		5.09267072		0.00000000		 0.00039337		 0.00077290	
Si		0.00000000		9.06095465		3.16392904		0.00000000		-0.00039337		-0.00077290	
Si		0.00000000		3.91385491		5.09267072		0.00000000		-0.00044944		 0.00077131	
Si		0.00000000		6.38034456		3.16392904		0.00000000		 0.00044944		-0.00077131	
Si		2.84914984		6.38034456		0.96437112		0.00000000		 0.00044907		 0.00077224	
Si		2.84914984		3.91385491		7.29222864		0.00000000		-0.00044907		-0.00077224	
Si		2.84914984		9.06095465		0.96437112		0.00000000		-0.00039330		 0.00077309	
Si		2.84914984		1.23324482		7.29222864		0.00000000		 0.00039330		-0.00077309	
O		0.00000000		2.57354987		1.78838002		-0.00000000		 0.00004061		 0.00013358	
O		0.00000000		7.72064960		6.46822089		-0.00000000		-0.00004061		-0.00013358	
O		2.84914984		7.72064960		5.91667961		0.00000000		-0.00004053		 0.00013366	
O		2.84914984		2.57354987		2.33992072		0.00000000		 0.00004053		-0.00013366	
O		0.00000000		2.57354987		5.91502881		0.00000000		-0.00004401		-0.00073002	
O		0.00000000		7.72064960		2.34157209		0.00000000		 0.00004401		 0.00073002	
O		2.84914984		7.72064960		1.78672865		-0.00000000		 0.00004395		-0.00073013	
O		2.84914984		2.57354987		6.46987168		-0.00000000		-0.00004395		 0.00073013	
O		0.00000000		10.19125741		2.11203774		0.00000000		-0.00030854		-0.00004688	
O		0.00000000		0.10294206		6.14456145		0.00000000		 0.00030854		 0.00004688	
O		0.00000000		5.25004180		2.11203774		0.00000000		 0.00040575		-0.00005339	
O		0.00000000		5.04415767		6.14456145		0.00000000		-0.00040575		 0.00005339	
O		2.84914984		5.04415767		6.24033847		-0.00000000		-0.00040618		-0.00005290	
O		2.84914984		5.25004180		2.01626186		-0.00000000		 0.00040618		 0.00005290	
O		2.84914984		0.10294206		6.24033847		0.00000000		 0.00030855		-0.00004673	
O		2.84914984		10.19125741		2.01626186		0.00000000		-0.00030855		 0.00004673	
O		1.49010480		1.26103885		8.19467577		-0.00025759		-0.00020260		-0.00040926	
O		4.20819375		9.03315948		0.06192399		 0.00025759		 0.00020260		 0.00040926	
O		4.20819375		3.88605975		8.19467577		 0.00025801		 0.00019700		-0.00040289	
O		1.49010480		6.40813858		0.06192399		-0.00025801		-0.00019700		 0.00040289	
O		4.20819375		6.40813858		0.06192399		 0.00025801		-0.00019700		 0.00040289	
O		1.49010480		3.88605975		8.19467577		-0.00025801		 0.00019700		-0.00040289	
O		1.49010480		9.03315948		0.06192399		-0.00025759		 0.00020260		 0.00040926	
O		4.20819375		1.26103885		8.19467577		 0.00025759		-0.00020260		-0.00040926	
O		4.33925464		6.40813858		4.06637560		-0.00025774		-0.00019696		-0.00040308	
O		1.35904504		3.88605975		4.19022473		 0.00025774		 0.00019696		 0.00040308	
O		1.35904504		9.03315948		4.06637560		 0.00025762		 0.00020262		-0.00040924	
O		4.33925464		1.26103885		4.19022473		-0.00025762		-0.00020262		 0.00040924	
O		1.35904504		1.26103885		4.19022473		 0.00025762		-0.00020262		 0.00040924	
O		4.33925464		9.03315948		4.06637560		-0.00025762		 0.00020262		-0.00040924	
O		4.33925464		3.88605975		4.19022473		-0.00025774		 0.00019696		 0.00040308	
O		1.35904504		6.40813858		4.06637560		 0.00025774		-0.00019696		-0.00040308	
