# total energy = -20636.9864544 eV	

CRYSTAL	
PRIMVEC	
		10.18202688		0.00000000		0.00023115	
		0.00000000		5.87623502		0.00000000	
		-0.00014070		0.00000000		4.77219226	
PRIMCOORD
   28 1	
Si		3.39432922		0.00000000		4.42452156		-0.00006195		0.00000000		-0.00007943	
Si		6.78755998		0.00000000		0.34790889		 0.00006178		 0.00000009		 0.00007921	
Si		8.48545120		2.93811952		4.42459794		-0.00005019		-0.00000010		-0.00008790	
Si		1.69643800		2.93811952		0.34783251		 0.00005038		-0.00000000		 0.00008799	
Mg		0.00000000		0.00000000		0.00000000		 0.00000011		 0.00000008		-0.00000013	
Mg		5.09101445		2.93811952		0.00011759		-0.00000025		-0.00000007		-0.00000007	
Mg		5.09094410		0.00000000		2.38621573		 0.00000091		 0.00000013		 0.00000059	
Mg		-0.00007035		2.93811851		2.38609714		-0.00000094		-0.00000008		-0.00000059	
Mg		2.54449117		1.46886981		2.38622377		-0.00000738		-0.00000003		 0.00000394	
Mg		7.63739803		4.40736922		2.38620668		 0.00000743		 0.00000007		-0.00000396	
Mg		7.63739702		1.46886981		2.38620668		 0.00000745		-0.00000011		-0.00000397	
Mg		2.54449117		4.40736822		2.38622377		-0.00000738		 0.00000001		 0.00000394	
O		8.28457180		0.00000000		1.06812104		 0.00012660		 0.00000013		 0.00006263	
O		1.89731740		0.00000000		3.70430941		-0.00012746		 0.00000001		-0.00006187	
O		3.19306490		2.93811952		1.06828083		 0.00010680		 0.00000001		 0.00007011	
O		6.98882429		2.93811952		3.70414962		-0.00010576		-0.00000019		-0.00007002	
O		3.39431817		0.00000000		1.26948686		-0.00009208		-0.00000004		 0.00006836	
O		6.78757103		0.00000000		3.50294359		 0.00009243		 0.00000007		-0.00006865	
O		8.48578788		2.93811952		1.26951902		-0.00007778		-0.00000006		 0.00005873	
O		1.69610132		2.93811952		3.50291143		 0.00007776		-0.00000002		-0.00005843	
O		0.94807982		1.64182529		1.06851701		-0.00003724		 0.00000306		-0.00002199	
O		9.23380938		4.23441274		3.70391344		 0.00003639		-0.00000325		 0.00002152	
O		9.23380837		1.64182529		3.70391344		 0.00003627		 0.00000313		 0.00002165	
O		0.94807982		4.23441274		1.06851701		-0.00003718		-0.00000302		-0.00002208	
O		6.03952038		4.57991767		1.06867982		-0.00001882		 0.00000492		-0.00003079	
O		4.14236881		1.29632036		3.70375164		 0.00001943		-0.00000451		 0.00003108	
O		4.14236881		4.57991767		3.70375164		 0.00001945		 0.00000441		 0.00003117	
O		6.03952038		1.29632036		1.06867881		-0.00001879		-0.00000462		-0.00003101	
