# total energy = -11146.3074093 eV	

CRYSTAL	
PRIMVEC	
		6.88292476		0.00000000		0.00000000	
		0.00000000		4.41000002		0.00000000	
		0.00000000		0.00000000		8.29199712	
PRIMCOORD
   12 1	
Ca		0.13456118		1.10250001		5.64411600		-0.00060857		0.00000000		 0.00006541	
Ca		6.74836358		3.30750002		2.64788387		 0.00060857		0.00000000		-0.00006541	
Ca		3.30690120		3.30750002		1.49811607		 0.00060857		-0.00000000		 0.00006541	
Ca		3.57602356		1.10250001		6.79388380		-0.00060857		-0.00000000		-0.00006541	
Si		1.86245061		1.10250001		3.19739456		-0.00056405		0.00000000		 0.00016754	
Si		5.02047415		3.30750002		5.09460463		 0.00056405		-0.00000000		-0.00016754	
Si		1.57901177		3.30750002		7.34339449		 0.00056405		-0.00000000		 0.00016754	
Si		5.30391299		1.10250001		0.94860469		-0.00056405		0.00000000		-0.00016754	
Mg		0.99210477		1.10250001		0.52919505		 0.00074867		-0.00000000		 0.00091752	
Mg		5.89081998		3.30750002		7.76280345		-0.00074867		0.00000000		-0.00091752	
Mg		2.44935760		3.30750002		4.67519498		-0.00074867		0.00000000		 0.00091752	
Mg		4.43356715		1.10250001		3.61680420		 0.00074867		0.00000000		-0.00091752	
