# total energy = -11146.7056347 eV	

CRYSTAL	
PRIMVEC	
		7.25497496		0.00000000		0.00000000	
		0.00000000		4.41000182		0.00000000	
		0.00000000		0.00000000		8.29200108	
PRIMCOORD
   12 1	
Ca		0.14183476		1.10250009		5.64411587		 0.00036370		-0.00000000		 0.00042384	
Ca		7.11314020		3.30750028		2.64788376		-0.00036370		-0.00000000		-0.00042384	
Ca		3.48565272		3.30750028		1.49811605		-0.00036370		0.00000000		 0.00042384	
Ca		3.76932224		1.10250009		6.79388430		 0.00036370		0.00000000		-0.00042384	
Si		1.96312367		1.10250009		3.19739515		-0.00008269		0.00000000		 0.00038916	
Si		5.29185129		3.30750028		5.09460520		 0.00008269		-0.00000000		-0.00038916	
Si		1.66436381		3.30750028		7.34339497		 0.00008269		0.00000000		 0.00038916	
Si		5.59061116		1.10250009		0.94860466		-0.00008269		0.00000000		-0.00038916	
Mg		1.04573209		1.10250009		0.52919529		 0.00002629		-0.00000000		-0.00090688	
Mg		6.20924287		3.30750028		7.76280362		-0.00002629		0.00000000		 0.00090688	
Mg		2.58175466		3.30750028		4.67519510		-0.00002629		0.00000000		-0.00090688	
Mg		4.67322030		1.10250009		3.61680380		 0.00002629		-0.00000000		 0.00090688	
