# total energy = -11146.645364 eV	

CRYSTAL	
PRIMVEC	
		7.62702463		0.00000000		0.00000000	
		0.00000000		4.40999903		0.00000000	
		0.00000000		0.00000000		8.29200203	
PRIMCOORD
   12 1	
Ca		0.14910833		1.10250014		5.64411568		 0.00053059		0.00000000		-0.00038305	
Ca		7.47791554		3.30749966		2.64788406		-0.00053059		-0.00000000		 0.00038305	
Ca		3.66440399		3.30749966		1.49811620		-0.00053059		0.00000000		-0.00038305	
Ca		3.96262065		1.10250014		6.79388355		 0.00053059		0.00000000		 0.00038305	
Si		2.06379660		1.10250014		3.19739517		 0.00021551		0.00000000		-0.00061614	
Si		5.56322804		3.30749966		5.09460458		-0.00021551		0.00000000		 0.00061614	
Si		1.74971572		3.30749966		7.34339465		-0.00021551		0.00000000		-0.00061614	
Si		5.87730891		1.10250014		0.94860509		 0.00021551		0.00000000		 0.00061614	
Mg		1.09935857		1.10250014		0.52919500		-0.00012581		0.00000000		-0.00058193	
Mg		6.52766607		3.30749966		7.76280398		 0.00012581		0.00000000		 0.00058193	
Mg		2.71415299		3.30749966		4.67519449		 0.00012581		-0.00000000		-0.00058193	
Mg		4.91287165		1.10250014		3.61680372		-0.00012581		-0.00000000		 0.00058193	
