# total energy = -11146.2187059 eV	

CRYSTAL	
PRIMVEC	
		7.99907484		0.00000000		0.00000000	
		0.00000000		4.41000194		0.00000000	
		0.00000000		0.00000000		8.29200096	
PRIMCOORD
   12 1	
Ca		0.15638191		1.10249969		5.64411601		 0.00022768		0.00000000		 0.00060763	
Ca		7.84269292		3.30749986		2.64788415		-0.00022768		0.00000000		-0.00060763	
Ca		3.84315630		3.30749986		1.49811633		-0.00022768		0.00000000		 0.00060763	
Ca		4.15592013		1.10249969		6.79388383		 0.00022768		0.00000000		-0.00060763	
Si		2.16446966		1.10249969		3.19739499		-0.00049285		0.00000000		-0.00015593	
Si		5.83460518		3.30749986		5.09460516		 0.00049285		0.00000000		 0.00015593	
Si		1.83506776		3.30749986		7.34339467		 0.00049285		0.00000000		-0.00015593	
Si		6.16400708		1.10249969		0.94860469		-0.00049285		0.00000000		 0.00015593	
Mg		1.15298665		1.10249969		0.52919479		-0.00069515		0.00000000		-0.00046750	
Mg		6.84608819		3.30749986		7.76280376		 0.00069515		0.00000000		 0.00046750	
Mg		2.84655077		3.30749986		4.67519527		 0.00069515		0.00000000		-0.00046750	
Mg		5.15252406		1.10249969		3.61680408		-0.00069515		0.00000000		 0.00046750	
