# total energy = -12280.6889668 eV	

CRYSTAL	
PRIMVEC	
		3.14299905		0.00000000		-0.25143929	
		-1.57150110		2.72191667		0.12572122	
		-1.82176116		0.00000000		22.77199715	
PRIMCOORD
   22 1	
O		-1.22476901		1.81461195		15.30961471		 0.00027037		-0.00052833		-0.00010981	
O		0.97450896		0.90730598		7.33666500		-0.00027037		 0.00052833		 0.00010981	
O		0.16983795		0.90730598		17.39505559		 0.00015858		 0.00013769		-0.00009036	
O		-0.42009801		1.81461195		5.25122286		-0.00015858		-0.00013769		 0.00009036	
O		-0.82252511		1.81461195		10.28155782		 0.00001555		-0.00052246		-0.00001148	
O		0.57226505		0.90730598		12.36472189		-0.00001555		 0.00052246		 0.00001148	
O		-1.63357188		1.81461195		20.41965163		 0.00041028		 0.00087396		-0.00015176	
O		1.38331182		0.90730598		2.22662682		-0.00041028		-0.00087396		 0.00015176	
O		0.00000000		0.00000000		0.00000000		0.00000000		0.00000000		0.00000000	
H		-1.14570492		1.81461195		14.32130962		 0.00082576		-0.00003432		 0.00026198	
H		0.89544487		0.90730598		8.32496883		-0.00082576		 0.00003432		-0.00026198	
H		-0.74327814		1.81461195		9.29097592		 0.00047752		 0.00007181		 0.00036244	
H		0.49301808		0.90730598		13.35530379		-0.00047752		-0.00007181		-0.00036244	
H		-1.55432586		1.81461195		19.42906973		 0.00028683		-0.00048262		 0.00074322	
H		1.30406611		0.90730598		3.21720904		-0.00028683		 0.00048262		-0.00074322	
H		0.09059098		0.90730598		18.38563749		 0.00087217		-0.00040560		-0.00077977	
H		-0.34085104		1.81461195		4.26064096		-0.00087217		 0.00040560		 0.00077977	
Mg		-1.31330705		0.00000000		16.41633354		 0.00032021		-0.00035711		-0.00013183	
Mg		-0.50845285		0.00000000		6.35566487		-0.00032021		 0.00035711		 0.00013183	
Mg		-0.15133811		0.90730598		21.40975963		-0.00065058		-0.00074126		 0.00038785	
Mg		-0.09892195		1.81461195		1.23652008		 0.00065058		 0.00074126		-0.00038785	
Mg		-0.91087995		0.00000000		11.38599984		0.00000000		0.00000000		0.00000000	
