# total energy = -12280.6889664 eV	

CRYSTAL	
PRIMVEC	
		3.14299905		0.00000000		0.25143929	
		-1.57150110		2.72191667		-0.12572122	
		1.82176116		0.00000000		22.77199715	
PRIMCOORD
   22 1	
O		1.22476901		1.81461195		15.30961471		-0.00027039		-0.00052824		-0.00011091	
O		2.16849104		0.90730598		7.58810492		 0.00027039		 0.00052824		 0.00011091	
O		2.97316205		0.90730598		17.64649551		-0.00015865		 0.00013751		-0.00008943	
O		0.42009801		1.81461195		5.25122286		 0.00015865		-0.00013751		 0.00008943	
O		0.82252511		1.81461195		10.28155782		-0.00001553		-0.00052233		-0.00001229	
O		2.57073495		0.90730598		12.61616181		 0.00001553		 0.00052233		 0.00001229	
O		1.63357188		1.81461195		20.41965163		-0.00041064		 0.00087423		-0.00015256	
O		1.75968786		0.90730598		2.47806706		 0.00041064		-0.00087423		 0.00015256	
O		0.00000000		0.00000000		0.00000000		0.00000000		0.00000000		0.00000000	
H		1.14570492		1.81461195		14.32130962		-0.00082563		-0.00003436		 0.00026296	
H		2.24755482		0.90730598		8.57640875		 0.00082563		 0.00003436		-0.00026296	
H		0.74327814		1.81461195		9.29097592		-0.00047742		 0.00007177		 0.00036315	
H		2.64998192		0.90730598		13.60674371		 0.00047742		-0.00007177		-0.00036315	
H		1.55432586		1.81461195		19.42906973		-0.00028668		-0.00048264		 0.00074449	
H		1.83893388		0.90730598		3.46864896		 0.00028668		 0.00048264		-0.00074449	
H		3.05240902		0.90730598		18.63707773		-0.00087207		-0.00040555		-0.00078070	
H		0.34085104		1.81461195		4.26064096		 0.00087207		 0.00040555		 0.00078070	
Mg		1.31330705		0.00000000		16.41633354		-0.00032019		-0.00035699		-0.00013167	
Mg		0.50845285		0.00000000		6.35566487		 0.00032019		 0.00035699		 0.00013167	
Mg		3.29433779		0.90730598		21.66119955		 0.00065120		-0.00074135		 0.00038702	
Mg		0.09892195		1.81461195		1.23652008		-0.00065120		 0.00074135		-0.00038702	
Mg		0.91087995		0.00000000		11.38599984		0.00000000		0.00000000		0.00000000	
