# total energy = -12280.5513286 eV	

CRYSTAL	
PRIMVEC	
		3.14300099		0.00000000		0.50288156	
		-1.57149890		2.72191873		-0.25143919	
		3.64352078		0.00000000		22.77199693	
PRIMCOORD
   22 1	
O		2.44953779		1.81461175		15.30961413		-0.00029769		 0.00013758		 0.00062949	
O		2.76548094		0.90730603		7.71382453		 0.00029769		-0.00013758		-0.00062949	
O		4.37482384		0.90730603		17.77221486		-0.00043673		 0.00012950		-0.00023262	
O		0.84019585		1.81461175		5.25122286		 0.00043673		-0.00012950		 0.00023262	
O		1.64504889		1.81461175		10.28155736		-0.00003009		 0.00027187		 0.00034447	
O		3.56997080		0.90730603		12.74188130		 0.00003009		-0.00027187		-0.00034447	
O		3.26714374		1.81461175		20.41965068		 0.00061162		 0.00076188		-0.00071360	
O		1.94787499		0.90730603		2.60378672		-0.00061162		-0.00076188		 0.00071360	
O		0.00000000		0.00000000		0.00000000		0.00000000		0.00000000		0.00000000	
H		2.29140977		1.81461175		14.32130932		-0.00015902		 0.00040226		-0.00006415	
H		2.92360992		0.90730603		8.70212839		 0.00015902		-0.00040226		 0.00006415	
H		1.48655578		1.81461175		9.29097545		-0.00022971		 0.00025015		-0.00035712	
H		3.72846391		0.90730603		13.73246322		 0.00022971		-0.00025015		 0.00035712	
H		3.10865095		1.81461175		19.42906876		-0.00033489		-0.00073817		 0.00083404	
H		2.10636874		0.90730603		3.59436895		 0.00033489		 0.00073817		-0.00083404	
H		4.53331663		0.90730603		18.76279677		-0.00030964		 0.00069762		 0.00049140	
H		0.68170306		1.81461175		4.26064062		 0.00030964		-0.00069762		-0.00049140	
Mg		2.62661279		0.00000000		16.41633297		-0.00040172		-0.00078699		-0.00025883	
Mg		1.01690608		0.00000000		6.35566459		 0.00040172		 0.00078699		 0.00025883	
Mg		5.01717672		0.90730603		21.78691870		-0.00015675		-0.00018364		 0.00006572	
Mg		0.19784297		1.81461175		1.23651996		 0.00015675		 0.00018364		-0.00006572	
Mg		1.82175975		0.00000000		11.38599942		0.00000000		0.00000000		0.00000000	
