# total energy = -92498.072262 eV

CRYSTAL
PRIMVEC
		19.88749943		0.00000000		0.00000000
		0.00000000		17.89998251		0.00000000
		0.00000000		0.00000000		5.27000836
PRIMECORD
   164 1
Mg		2.58537493		3.04299822		2.00259960		-0.00028044		-0.00032015		 0.00016736
Mg		17.30212450		14.85699026		3.26740081		 0.00028044		 0.00032015		-0.00016736
Mg		7.35837479		14.85699026		4.63759980		 0.00028044		 0.00032015		 0.00016736
Mg		12.52912464		3.04299822		0.63240061		-0.00028044		-0.00032015		-0.00016736
Mg		17.30212450		11.99299345		3.26740081		 0.00028044		-0.00032015		-0.00016736
Mg		2.58537493		5.90699502		2.00259960		-0.00028044		 0.00032015		 0.00016736
Mg		12.52912464		5.90699502		0.63240061		-0.00028044		 0.00032015		-0.00016736
Mg		7.35837479		11.99299345		4.63759980		 0.00028044		-0.00032015		 0.00016736
Mg		2.58537493		1.43199940		4.58489992		-0.00010282		-0.00035409		-0.00003216
Mg		17.30212450		16.46799107		0.68510049		 0.00010282		 0.00035409		 0.00003216
Mg		7.35837479		16.46799107		1.94989971		 0.00010282		 0.00035409		-0.00003216
Mg		12.52912464		1.43199940		3.32010069		-0.00010282		-0.00035409		 0.00003216
Mg		17.30212450		10.38199463		0.68510049		 0.00010282		-0.00035409		 0.00003216
Mg		2.58537493		7.51799584		4.58489992		-0.00010282		 0.00035409		-0.00003216
Mg		12.52912464		7.51799584		3.32010069		-0.00010282		 0.00035409		 0.00003216
Mg		7.35837479		10.38199463		1.94989971		 0.00010282		-0.00035409		-0.00003216
Mg		2.58537493		17.54198962		2.00259960		-0.00004511		-0.00013011		-0.00015882
Mg		17.30212450		0.35800084		3.26740081		 0.00004511		 0.00013011		 0.00015882
Mg		7.35837479		0.35800084		4.63759980		 0.00004511		 0.00013011		-0.00015882
Mg		12.52912464		17.54198962		0.63240061		-0.00004511		-0.00013011		 0.00015882
Mg		17.30212450		8.59199439		3.26740081		 0.00004511		-0.00013011		 0.00015882
Mg		2.58537493		9.30799409		2.00259960		-0.00004511		 0.00013011		-0.00015882
Mg		12.52912464		9.30799409		0.63240061		-0.00004511		 0.00013011		 0.00015882
Mg		7.35837479		8.59199439		4.63759980		 0.00004511		-0.00013011		-0.00015882
Mg		2.58537493		4.47499762		4.58489992		 0.00009125		0.00000000		-0.00011190
Mg		17.30212450		13.42499285		0.68510049		-0.00009125		0.00000000		 0.00011190
Mg		7.35837479		13.42499285		1.94989971		-0.00009125		0.00000000		-0.00011190
Mg		12.52912464		4.47499762		3.32010069		 0.00009125		0.00000000		 0.00011190
Si		0.59662498		14.67799083		1.52830063		 0.00001363		-0.00018621		-0.00016194
Si		19.29087644		3.22199765		3.74169977		-0.00001363		 0.00018621		 0.00016194
Si		9.34712473		3.22199765		4.16330084		-0.00001363		 0.00018621		-0.00016194
Si		10.54037271		14.67799083		1.10669957		 0.00001363		-0.00018621		 0.00016194
Si		19.29087644		5.72799759		3.74169977		-0.00001363		-0.00018621		 0.00016194
Si		0.59662498		12.17199288		1.52830063		 0.00001363		 0.00018621		-0.00016194
Si		10.54037271		12.17199288		1.10669957		 0.00001363		 0.00018621		 0.00016194
Si		9.34712473		5.72799759		4.16330084		-0.00001363		-0.00018621		-0.00016194
Si		0.59662498		16.46799107		4.16330084		 0.00005478		-0.00000247		-0.00021995
Si		19.29087644		1.43199940		1.10669957		-0.00005478		 0.00000247		 0.00021995
Si		9.34712473		1.43199940		1.52830063		-0.00005478		 0.00000247		-0.00021995
Si		10.54037271		16.46799107		3.74169977		 0.00005478		-0.00000247		 0.00021995
Si		19.29087644		7.51799584		1.10669957		-0.00005478		-0.00000247		 0.00021995
Si		0.59662498		10.38199463		4.16330084		 0.00005478		 0.00000247		-0.00021995
Si		10.54037271		10.38199463		3.74169977		 0.00005478		 0.00000247		 0.00021995
Si		9.34712473		7.51799584		1.52830063		-0.00005478		-0.00000247		-0.00021995
Si		4.37524987		16.46799107		0.21079954		-0.00001506		-0.00004767		-0.00013000
Si		15.51224757		1.43199940		5.05919888		 0.00001506		 0.00004767		 0.00013000
Si		5.56849984		1.43199940		2.84579974		 0.00001506		 0.00004767		-0.00013000
Si		14.31900158		16.46799107		2.42420066		-0.00001506		-0.00004767		 0.00013000
Si		15.51224757		7.51799584		5.05919888		 0.00001506		-0.00004767		 0.00013000
Si		4.37524987		10.38199463		0.21079954		-0.00001506		 0.00004767		-0.00013000
Si		14.31900158		10.38199463		2.42420066		-0.00001506		 0.00004767		 0.00013000
Si		5.56849984		7.51799584		2.84579974		 0.00001506		-0.00004767		-0.00013000
Si		4.37524987		14.67799083		2.84579974		-0.00018294		 0.00024657		-0.00003279
Si		15.51224757		3.22199765		2.42420066		 0.00018294		-0.00024657		 0.00003279
Si		5.56849984		3.22199765		0.21079954		 0.00018294		-0.00024657		-0.00003279
Si		14.31900158		14.67799083		5.05919888		-0.00018294		 0.00024657		 0.00003279
Si		15.51224757		5.72799759		2.42420066		 0.00018294		 0.00024657		 0.00003279
Si		4.37524987		12.17199288		2.84579974		-0.00018294		-0.00024657		-0.00003279
Si		14.31900158		12.17199288		5.05919888		-0.00018294		-0.00024657		 0.00003279
Si		5.56849984		5.72799759		0.21079954		 0.00018294		 0.00024657		-0.00003279
O		1.19324997		1.25299798		1.05399968		-0.00021070		-0.00034511		-0.00020818
O		18.69424946		16.64699050		4.21600072		 0.00021070		 0.00034511		 0.00020818
O		8.75049975		16.64699050		3.68899989		 0.00021070		 0.00034511		-0.00020818
O		11.13699968		1.25299798		1.58100052		-0.00021070		-0.00034511		 0.00020818
O		18.69424946		10.20299321		4.21600072		 0.00021070		-0.00034511		 0.00020818
O		1.19324997		7.69699526		1.05399968		-0.00021070		 0.00034511		-0.00020818
O		11.13699968		7.69699526		1.58100052		-0.00021070		 0.00034511		 0.00020818
O		8.75049975		10.20299321		3.68899989		 0.00021070		-0.00034511		-0.00020818
O		1.19324997		3.22199765		3.68899989		-0.00000202		-0.00004319		-0.00031984
O		18.69424946		14.67799083		1.58100052		 0.00000202		 0.00004319		 0.00031984
O		8.75049975		14.67799083		1.05399968		 0.00000202		 0.00004319		-0.00031984
O		11.13699968		3.22199765		4.21600072		-0.00000202		-0.00004319		 0.00031984
O		18.69424946		12.17199288		1.58100052		 0.00000202		-0.00004319		 0.00031984
O		1.19324997		5.72799759		3.68899989		-0.00000202		 0.00004319		-0.00031984
O		11.13699968		5.72799759		4.21600072		-0.00000202		 0.00004319		 0.00031984
O		8.75049975		12.17199288		1.05399968		 0.00000202		-0.00004319		-0.00031984
O		1.19324997		13.42499285		1.05399968		 0.00009878		0.00000000		-0.00034760
O		18.69424946		4.47499762		4.21600072		-0.00009878		0.00000000		 0.00034760
O		8.75049975		4.47499762		3.68899989		-0.00009878		-0.00000000		-0.00034760
O		11.13699968		13.42499285		1.58100052		 0.00009878		-0.00000000		 0.00034760
O		1.19324997		4.47499762		1.05399968		-0.00013666		0.00000000		-0.00049865
O		18.69424946		13.42499285		4.21600072		 0.00013666		0.00000000		 0.00049865
O		8.75049975		13.42499285		3.68899989		 0.00013666		0.00000000		-0.00049865
O		11.13699968		4.47499762		1.58100052		-0.00013666		0.00000000		 0.00049865
O		1.19324997		0.00000000		3.68899989		-0.00019636		-0.00030060		-0.00020834
O		18.69424946		0.00000000		1.58100052		 0.00019636		 0.00030060		 0.00020834
O		8.75049975		0.00000000		1.05399968		 0.00019636		 0.00030060		-0.00020834
O		11.13699968		0.00000000		4.21600072		-0.00019636		-0.00030060		 0.00020834
O		18.69424946		8.94999523		1.58100052		 0.00019636		-0.00030060		 0.00020834
O		1.19324997		8.94999523		3.68899989		-0.00019636		 0.00030060		-0.00020834
O		11.13699968		8.94999523		4.21600072		-0.00019636		 0.00030060		 0.00020834
O		8.75049975		8.94999523		1.05399968		 0.00019636		-0.00030060		-0.00020834
O		0.99437497		15.57298996		0.26349942		-0.00003933		 0.00028923		-0.00008758
O		18.89312446		2.32699852		5.00649899		 0.00003933		-0.00028923		 0.00008758
O		8.94937474		2.32699852		2.89849963		 0.00003933		-0.00028923		-0.00008758
O		10.93812469		15.57298996		2.37150078		-0.00003933		 0.00028923		 0.00008758
O		18.89312446		6.62299671		5.00649899		 0.00003933		 0.00028923		 0.00008758
O		0.99437497		11.27699376		0.26349942		-0.00003933		-0.00028923		-0.00008758
O		10.93812469		11.27699376		2.37150078		-0.00003933		-0.00028923		 0.00008758
O		8.94937474		6.62299671		2.89849963		 0.00003933		 0.00028923		-0.00008758
O		0.99437497		15.57298996		2.84579974		 0.00001081		 0.00002895		-0.00045492
O		18.89312446		2.32699852		2.42420066		-0.00001081		-0.00002895		 0.00045492
O		8.94937474		2.32699852		0.21079954		-0.00001081		-0.00002895		-0.00045492
O		10.93812469		15.57298996		5.05919888		 0.00001081		 0.00002895		 0.00045492
O		18.89312446		6.62299671		2.42420066		-0.00001081		 0.00002895		 0.00045492
O		0.99437497		11.27699376		2.84579974		 0.00001081		-0.00002895		-0.00045492
O		10.93812469		11.27699376		5.05919888		 0.00001081		-0.00002895		 0.00045492
O		8.94937474		6.62299671		0.21079954		-0.00001081		 0.00002895		-0.00045492
O		3.77862489		3.22199765		0.26349942		 0.00021167		 0.00012842		 0.00021821
O		16.10887454		14.67799083		5.00649899		-0.00021167		-0.00012842		-0.00021821
O		6.16512482		14.67799083		2.89849963		-0.00021167		-0.00012842		 0.00021821
O		13.72237461		3.22199765		2.37150078		 0.00021167		 0.00012842		-0.00021821
O		16.10887454		12.17199288		5.00649899		-0.00021167		 0.00012842		-0.00021821
O		3.77862489		5.72799759		0.26349942		 0.00021167		-0.00012842		 0.00021821
O		13.72237461		5.72799759		2.37150078		 0.00021167		-0.00012842		-0.00021821
O		6.16512482		12.17199288		2.89849963		-0.00021167		 0.00012842		 0.00021821
O		3.77862489		1.25299798		2.95119951		-0.00000983		 0.00000092		 0.00025207
O		16.10887454		16.64699050		2.31880089		 0.00000983		-0.00000092		-0.00025207
O		6.16512482		16.64699050		0.31619931		 0.00000983		-0.00000092		 0.00025207
O		13.72237461		1.25299798		4.95379911		-0.00000983		 0.00000092		-0.00025207
O		16.10887454		10.20299321		2.31880089		 0.00000983		 0.00000092		-0.00025207
O		3.77862489		7.69699526		2.95119951		-0.00000983		-0.00000092		 0.00025207
O		13.72237461		7.69699526		4.95379911		-0.00000983		-0.00000092		-0.00025207
O		6.16512482		10.20299321		0.31619931		 0.00000983		 0.00000092		 0.00025207
O		3.77862489		0.00000000		0.26349942		-0.00025672		-0.00019438		-0.00006408
O		16.10887454		0.00000000		5.00649899		 0.00025672		 0.00019438		 0.00006408
O		6.16512482		0.00000000		2.89849963		 0.00025672		 0.00019438		-0.00006408
O		13.72237461		0.00000000		2.37150078		-0.00025672		-0.00019438		 0.00006408
O		16.10887454		8.94999523		5.00649899		 0.00025672		-0.00019438		 0.00006408
O		3.77862489		8.94999523		0.26349942		-0.00025672		 0.00019438		-0.00006408
O		13.72237461		8.94999523		2.37150078		-0.00025672		 0.00019438		 0.00006408
O		6.16512482		8.94999523		2.89849963		 0.00025672		-0.00019438		-0.00006408
O		3.77862489		13.42499285		2.37150078		 0.00091708		0.00000000		 0.00032549
O		16.10887454		4.47499762		2.89849963		-0.00091708		0.00000000		-0.00032549
O		6.16512482		4.47499762		5.00649899		-0.00091708		-0.00000000		 0.00032549
O		13.72237461		13.42499285		0.26349942		 0.00091708		0.00000000		-0.00032549
O		3.77862489		4.47499762		2.89849963		-0.00008747		0.00000000		 0.00011076
O		16.10887454		13.42499285		2.37150078		 0.00008747		0.00000000		-0.00011076
O		6.16512482		13.42499285		0.26349942		 0.00008747		0.00000000		 0.00011076
O		13.72237461		4.47499762		5.00649899		-0.00008747		0.00000000		-0.00011076
O		3.97749989		15.57298996		1.58100052		-0.00011033		 0.00017382		-0.00009272
O		15.90999954		2.32699852		3.68899989		 0.00011033		-0.00017382		 0.00009272
O		5.96624983		2.32699852		4.21600072		 0.00011033		-0.00017382		-0.00009272
O		13.92124960		15.57298996		1.05399968		-0.00011033		 0.00017382		 0.00009272
O		15.90999954		6.62299671		3.68899989		 0.00011033		 0.00017382		 0.00009272
O		3.97749989		11.27699376		1.58100052		-0.00011033		-0.00017382		-0.00009272
O		13.92124960		11.27699376		1.05399968		-0.00011033		-0.00017382		 0.00009272
O		5.96624983		6.62299671		4.21600072		 0.00011033		 0.00017382		-0.00009272
O		3.97749989		15.57298996		4.21600072		 0.00001824		-0.00027480		 0.00003183
O		15.90999954		2.32699852		1.05399968		-0.00001824		 0.00027480		-0.00003183
O		5.96624983		2.32699852		1.58100052		-0.00001824		 0.00027480		 0.00003183
O		13.92124960		15.57298996		3.68899989		 0.00001824		-0.00027480		-0.00003183
O		15.90999954		6.62299671		1.05399968		-0.00001824		-0.00027480		-0.00003183
O		3.97749989		11.27699376		4.21600072		 0.00001824		 0.00027480		 0.00003183
O		13.92124960		11.27699376		3.68899989		 0.00001824		 0.00027480		-0.00003183
O		5.96624983		6.62299671		1.58100052		-0.00001824		-0.00027480		 0.00003183
H		19.29087644		0.00000000		0.79050026		 0.00011570		-0.00040198		 0.00013101
H		0.59662299		0.00000000		4.47950015		-0.00011570		 0.00040198		-0.00013101
H		10.54037271		0.00000000		3.42550046		-0.00011570		 0.00040198		 0.00013101
H		9.34712672		0.00000000		1.84449994		 0.00011570		-0.00040198		-0.00013101
H		0.59662299		8.94999523		4.47950015		-0.00011570		-0.00040198		-0.00013101
H		19.29087644		8.94999523		0.79050026		 0.00011570		 0.00040198		 0.00013101
H		9.34712672		8.94999523		1.84449994		 0.00011570		 0.00040198		-0.00013101
H		10.54037271		8.94999523		3.42550046		-0.00011570		-0.00040198		 0.00013101
