# total energy = -92498.1033924 eV

CRYSTAL
PRIMVEC
		18.96249980		0.00000000		0.00000000
		0.00000000		17.89999301		0.00000000
		0.00000000		0.00000000		5.27000106
PRIMECORD
   164 1
Mg		2.46512497		3.04299767		2.00259926		-0.00033723		 0.00017816		-0.00002752
Mg		16.49737483		14.85699155		3.26739990		 0.00033723		-0.00017816		 0.00002752
Mg		7.01612493		14.85699155		4.63759979		 0.00033723		-0.00017816		-0.00002752
Mg		11.94637487		3.04299767		0.63239937		-0.00033723		 0.00017816		 0.00002752
Mg		16.49737483		11.99299418		3.26739990		 0.00033723		 0.00017816		 0.00002752
Mg		2.46512497		5.90699504		2.00259926		-0.00033723		-0.00017816		-0.00002752
Mg		11.94637487		5.90699504		0.63239937		-0.00033723		-0.00017816		 0.00002752
Mg		7.01612493		11.99299418		4.63759979		 0.00033723		 0.00017816		-0.00002752
Mg		2.46512497		1.43199868		4.58489921		 0.00010633		-0.00019343		-0.00001469
Mg		16.49737483		16.46799054		0.68509995		-0.00010633		 0.00019343		 0.00001469
Mg		7.01612493		16.46799054		1.94990058		-0.00010633		 0.00019343		-0.00001469
Mg		11.94637487		1.43199868		3.32010048		 0.00010633		-0.00019343		 0.00001469
Mg		16.49737483		10.38199329		0.68509995		-0.00010633		-0.00019343		 0.00001469
Mg		2.46512497		7.51799593		4.58489921		 0.00010633		 0.00019343		-0.00001469
Mg		11.94637487		7.51799593		3.32010048		 0.00010633		 0.00019343		 0.00001469
Mg		7.01612493		10.38199329		1.94990058		-0.00010633		-0.00019343		-0.00001469
Mg		2.46512497		17.54199050		2.00259926		 0.00027282		-0.00019389		 0.00015586
Mg		16.49737483		0.35800062		3.26739990		-0.00027282		 0.00019389		-0.00015586
Mg		7.01612493		0.35800062		4.63759979		-0.00027282		 0.00019389		 0.00015586
Mg		11.94637487		17.54199050		0.63239937		 0.00027282		-0.00019389		-0.00015586
Mg		16.49737483		8.59199399		3.26739990		-0.00027282		-0.00019389		-0.00015586
Mg		2.46512497		9.30799523		2.00259926		 0.00027282		 0.00019389		 0.00015586
Mg		11.94637487		9.30799523		0.63239937		 0.00027282		 0.00019389		-0.00015586
Mg		7.01612493		8.59199399		4.63759979		-0.00027282		-0.00019389		 0.00015586
Mg		2.46512497		4.47499825		4.58489921		 0.00040839		0.00000000		-0.00028076
Mg		16.49737483		13.42499286		0.68509995		-0.00040839		0.00000000		 0.00028076
Mg		7.01612493		13.42499286		1.94990058		-0.00040839		0.00000000		-0.00028076
Mg		11.94637487		4.47499825		3.32010048		 0.00040839		0.00000000		 0.00028076
Si		0.56887499		14.67799124		1.52829974		 0.00008902		-0.00002756		-0.00004902
Si		18.39362670		3.22199798		3.74169942		-0.00008902		 0.00002756		 0.00004902
Si		8.91237491		3.22199798		4.16330027		-0.00008902		 0.00002756		-0.00004902
Si		10.05012300		14.67799124		1.10670079		 0.00008902		-0.00002756		 0.00004902
Si		18.39362670		5.72799663		3.74169942		-0.00008902		-0.00002756		 0.00004902
Si		0.56887499		12.17199259		1.52829974		 0.00008902		 0.00002756		-0.00004902
Si		10.05012300		12.17199259		1.10670079		 0.00008902		 0.00002756		 0.00004902
Si		8.91237491		5.72799663		4.16330027		-0.00008902		-0.00002756		-0.00004902
Si		0.56887499		16.46799054		4.16330027		 0.00000627		-0.00003210		 0.00006810
Si		18.39362670		1.43199868		1.10670079		-0.00000627		 0.00003210		-0.00006810
Si		8.91237491		1.43199868		1.52829974		-0.00000627		 0.00003210		 0.00006810
Si		10.05012300		16.46799054		3.74169942		 0.00000627		-0.00003210		-0.00006810
Si		18.39362670		7.51799593		1.10670079		-0.00000627		-0.00003210		-0.00006810
Si		0.56887499		10.38199329		4.16330027		 0.00000627		 0.00003210		 0.00006810
Si		10.05012300		10.38199329		3.74169942		 0.00000627		 0.00003210		-0.00006810
Si		8.91237491		7.51799593		1.52829974		-0.00000627		-0.00003210		 0.00006810
Si		4.17174996		16.46799054		0.21080042		-0.00021848		 0.00030266		 0.00021368
Si		14.79074795		1.43199868		5.05920064		 0.00021848		-0.00030266		-0.00021368
Si		5.30949994		1.43199868		2.84579905		 0.00021848		-0.00030266		 0.00021368
Si		13.65300175		16.46799054		2.42420011		-0.00021848		 0.00030266		-0.00021368
Si		14.79074795		7.51799593		5.05920064		 0.00021848		 0.00030266		-0.00021368
Si		4.17174996		10.38199329		0.21080042		-0.00021848		-0.00030266		 0.00021368
Si		13.65300175		10.38199329		2.42420011		-0.00021848		-0.00030266		-0.00021368
Si		5.30949994		7.51799593		2.84579905		 0.00021848		 0.00030266		 0.00021368
Si		4.17174996		14.67799124		2.84579905		-0.00016690		-0.00004086		 0.00040816
Si		14.79074795		3.22199798		2.42420011		 0.00016690		 0.00004086		-0.00040816
Si		5.30949994		3.22199798		0.21080042		 0.00016690		 0.00004086		 0.00040816
Si		13.65300175		14.67799124		5.05920064		-0.00016690		-0.00004086		-0.00040816
Si		14.79074795		5.72799663		2.42420011		 0.00016690		-0.00004086		-0.00040816
Si		4.17174996		12.17199259		2.84579905		-0.00016690		 0.00004086		 0.00040816
Si		13.65300175		12.17199259		5.05920064		-0.00016690		 0.00004086		-0.00040816
Si		5.30949994		5.72799663		0.21080042		 0.00016690		-0.00004086		 0.00040816
O		1.13774999		1.25299837		1.05400021		-0.00004414		-0.00025423		 0.00037238
O		17.82474981		16.64699085		4.21600085		 0.00004414		 0.00025423		-0.00037238
O		8.34349991		16.64699085		3.68900074		 0.00004414		 0.00025423		 0.00037238
O		10.61899989		1.25299837		1.58100032		-0.00004414		-0.00025423		-0.00037238
O		17.82474981		10.20299298		4.21600085		 0.00004414		-0.00025423		-0.00037238
O		1.13774999		7.69699624		1.05400021		-0.00004414		 0.00025423		 0.00037238
O		10.61899989		7.69699624		1.58100032		-0.00004414		 0.00025423		-0.00037238
O		8.34349991		10.20299298		3.68900074		 0.00004414		-0.00025423		 0.00037238
O		1.13774999		3.22199798		3.68900074		-0.00004055		-0.00006799		 0.00049842
O		17.82474981		14.67799124		1.58100032		 0.00004055		 0.00006799		-0.00049842
O		8.34349991		14.67799124		1.05400021		 0.00004055		 0.00006799		 0.00049842
O		10.61899989		3.22199798		4.21600085		-0.00004055		-0.00006799		-0.00049842
O		17.82474981		12.17199259		1.58100032		 0.00004055		-0.00006799		-0.00049842
O		1.13774999		5.72799663		3.68900074		-0.00004055		 0.00006799		 0.00049842
O		10.61899989		5.72799663		4.21600085		-0.00004055		 0.00006799		-0.00049842
O		8.34349991		12.17199259		1.05400021		 0.00004055		-0.00006799		 0.00049842
O		1.13774999		13.42499286		1.05400021		-0.00018845		0.00000000		 0.00031740
O		17.82474981		4.47499825		4.21600085		 0.00018845		-0.00000000		-0.00031740
O		8.34349991		4.47499825		3.68900074		 0.00018845		0.00000000		 0.00031740
O		10.61899989		13.42499286		1.58100032		-0.00018845		0.00000000		-0.00031740
O		1.13774999		4.47499825		1.05400021		-0.00001449		0.00000000		-0.00031934
O		17.82474981		13.42499286		4.21600085		 0.00001449		0.00000000		 0.00031934
O		8.34349991		13.42499286		3.68900074		 0.00001449		0.00000000		-0.00031934
O		10.61899989		4.47499825		1.58100032		-0.00001449		-0.00000000		 0.00031934
O		1.13774999		0.00000000		3.68900074		-0.00007200		 0.00026395		 0.00029035
O		17.82474981		0.00000000		1.58100032		 0.00007200		-0.00026395		-0.00029035
O		8.34349991		0.00000000		1.05400021		 0.00007200		-0.00026395		 0.00029035
O		10.61899989		0.00000000		4.21600085		-0.00007200		 0.00026395		-0.00029035
O		17.82474981		8.94999461		1.58100032		 0.00007200		 0.00026395		-0.00029035
O		1.13774999		8.94999461		3.68900074		-0.00007200		-0.00026395		 0.00029035
O		10.61899989		8.94999461		4.21600085		-0.00007200		-0.00026395		-0.00029035
O		8.34349991		8.94999461		1.05400021		 0.00007200		 0.00026395		 0.00029035
O		0.94812499		15.57299089		0.26349910		 0.00019205		-0.00031319		-0.00008856
O		18.01437481		2.32699833		5.00650006		-0.00019205		 0.00031319		 0.00008856
O		8.53312491		2.32699833		2.89849963		-0.00019205		 0.00031319		-0.00008856
O		10.42937489		15.57299089		2.37149953		 0.00019205		-0.00031319		 0.00008856
O		18.01437481		6.62299628		5.00650006		-0.00019205		-0.00031319		 0.00008856
O		0.94812499		11.27699294		0.26349910		 0.00019205		 0.00031319		-0.00008856
O		10.42937489		11.27699294		2.37149953		 0.00019205		 0.00031319		 0.00008856
O		8.53312491		6.62299628		2.89849963		-0.00019205		-0.00031319		-0.00008856
O		0.94812499		15.57299089		2.84579905		 0.00012147		 0.00054827		-0.00032477
O		18.01437481		2.32699833		2.42420011		-0.00012147		-0.00054827		 0.00032477
O		8.53312491		2.32699833		0.21080042		-0.00012147		-0.00054827		-0.00032477
O		10.42937489		15.57299089		5.05920064		 0.00012147		 0.00054827		 0.00032477
O		18.01437481		6.62299628		2.42420011		-0.00012147		 0.00054827		 0.00032477
O		0.94812499		11.27699294		2.84579905		 0.00012147		-0.00054827		-0.00032477
O		10.42937489		11.27699294		5.05920064		 0.00012147		-0.00054827		 0.00032477
O		8.53312491		6.62299628		0.21080042		-0.00012147		 0.00054827		-0.00032477
O		3.60287496		3.22199798		0.26349910		-0.00006427		-0.00004671		 0.00016989
O		15.35962484		14.67799124		5.00650006		 0.00006427		 0.00004671		-0.00016989
O		5.87837494		14.67799124		2.89849963		 0.00006427		 0.00004671		 0.00016989
O		13.08412486		3.22199798		2.37149953		-0.00006427		-0.00004671		-0.00016989
O		15.35962484		12.17199259		5.00650006		 0.00006427		-0.00004671		-0.00016989
O		3.60287496		5.72799663		0.26349910		-0.00006427		 0.00004671		 0.00016989
O		13.08412486		5.72799663		2.37149953		-0.00006427		 0.00004671		-0.00016989
O		5.87837494		12.17199259		2.89849963		 0.00006427		-0.00004671		 0.00016989
O		3.60287496		1.25299837		2.95120021		 0.00029826		-0.00020813		-0.00007839
O		15.35962484		16.64699085		2.31880084		-0.00029826		 0.00020813		 0.00007839
O		5.87837494		16.64699085		0.31619968		-0.00029826		 0.00020813		-0.00007839
O		13.08412486		1.25299837		4.95379948		 0.00029826		-0.00020813		 0.00007839
O		15.35962484		10.20299298		2.31880084		-0.00029826		-0.00020813		 0.00007839
O		3.60287496		7.69699624		2.95120021		 0.00029826		 0.00020813		-0.00007839
O		13.08412486		7.69699624		4.95379948		 0.00029826		 0.00020813		 0.00007839
O		5.87837494		10.20299298		0.31619968		-0.00029826		-0.00020813		-0.00007839
O		3.60287496		0.00000000		0.26349910		-0.00007515		 0.00030648		-0.00022467
O		15.35962484		0.00000000		5.00650006		 0.00007515		-0.00030648		 0.00022467
O		5.87837494		0.00000000		2.89849963		 0.00007515		-0.00030648		-0.00022467
O		13.08412486		0.00000000		2.37149953		-0.00007515		 0.00030648		 0.00022467
O		15.35962484		8.94999461		5.00650006		 0.00007515		 0.00030648		 0.00022467
O		3.60287496		8.94999461		0.26349910		-0.00007515		-0.00030648		-0.00022467
O		13.08412486		8.94999461		2.37149953		-0.00007515		-0.00030648		 0.00022467
O		5.87837494		8.94999461		2.89849963		 0.00007515		 0.00030648		-0.00022467
O		3.60287496		13.42499286		2.37149953		-0.00017563		0.00000000		 0.00046309
O		15.35962484		4.47499825		2.89849963		 0.00017563		0.00000000		-0.00046309
O		5.87837494		4.47499825		5.00650006		 0.00017563		0.00000000		 0.00046309
O		13.08412486		13.42499286		0.26349910		-0.00017563		-0.00000000		-0.00046309
O		3.60287496		4.47499825		2.89849963		 0.00077673		0.00000000		 0.00027226
O		15.35962484		13.42499286		2.37149953		-0.00077673		0.00000000		-0.00027226
O		5.87837494		13.42499286		0.26349910		-0.00077673		0.00000000		 0.00027226
O		13.08412486		4.47499825		5.00650006		 0.00077673		-0.00000000		-0.00027226
O		3.79249996		15.57299089		1.58100032		 0.00007613		 0.00036328		 0.00044403
O		15.16999984		2.32699833		3.68900074		-0.00007613		-0.00036328		-0.00044403
O		5.68874994		2.32699833		4.21600085		-0.00007613		-0.00036328		 0.00044403
O		13.27374986		15.57299089		1.05400021		 0.00007613		 0.00036328		-0.00044403
O		15.16999984		6.62299628		3.68900074		-0.00007613		 0.00036328		-0.00044403
O		3.79249996		11.27699294		1.58100032		 0.00007613		-0.00036328		 0.00044403
O		13.27374986		11.27699294		1.05400021		 0.00007613		-0.00036328		-0.00044403
O		5.68874994		6.62299628		4.21600085		-0.00007613		 0.00036328		 0.00044403
O		3.79249996		15.57299089		4.21600085		-0.00025481		 0.00022304		 0.00029929
O		15.16999984		2.32699833		1.05400021		 0.00025481		-0.00022304		-0.00029929
O		5.68874994		2.32699833		1.58100032		 0.00025481		-0.00022304		 0.00029929
O		13.27374986		15.57299089		3.68900074		-0.00025481		 0.00022304		-0.00029929
O		15.16999984		6.62299628		1.05400021		 0.00025481		 0.00022304		-0.00029929
O		3.79249996		11.27699294		4.21600085		-0.00025481		-0.00022304		 0.00029929
O		13.27374986		11.27699294		3.68900074		-0.00025481		-0.00022304		-0.00029929
O		5.68874994		6.62299628		1.58100032		 0.00025481		 0.00022304		 0.00029929
H		18.39362670		0.00000000		0.79049921		 0.00045566		 0.00040714		-0.00030877
H		0.56887310		0.00000000		4.47949995		-0.00045566		-0.00040714		 0.00030877
H		10.05012300		0.00000000		3.42549974		-0.00045566		-0.00040714		-0.00030877
H		8.91237680		0.00000000		1.84449942		 0.00045566		 0.00040714		 0.00030877
H		0.56887310		8.94999461		4.47949995		-0.00045566		 0.00040714		 0.00030877
H		18.39362670		8.94999461		0.79049921		 0.00045566		-0.00040714		-0.00030877
H		8.91237680		8.94999461		1.84449942		 0.00045566		-0.00040714		 0.00030877
H		10.05012300		8.94999461		3.42549974		-0.00045566		 0.00040714		-0.00030877
