# total energy = -44005.954817 eV	

CRYSTAL	
PRIMVEC	
		9.81799975		0.00000000		0.00000000	
		0.00000000		16.24229989		0.00000000	
		-1.33411890		0.00000000		5.10350427	
PRIMCOORD
   82 1	
Si		2.35753443		1.36435343		1.51267886		-0.00025416		 0.00020007		 0.00030564	
Si		6.12634446		14.87794744		3.59082443		 0.00025416		-0.00020007		-0.00030564	
Si		6.12634446		1.36435343		3.59082443		 0.00025416		 0.00020007		-0.00030564	
Si		2.35753443		14.87794744		1.51267886		-0.00025416		-0.00020007		 0.00030564	
Si		7.26653430		9.48550337		1.51267886		-0.00053881		 0.00016478		 0.00024447	
Si		1.21734557		6.75679652		3.59082443		 0.00053881		-0.00016478		-0.00024447	
Si		1.21734557		9.48550337		3.59082443		 0.00053881		 0.00016478		-0.00024447	
Si		7.26653430		6.75679652		1.51267886		-0.00053881		-0.00016478		 0.00024447	
Si		1.76155730		2.77905748		4.10423807		 0.00011599		-0.00002613		 0.00037244	
Si		6.72232257		13.46324240		0.99926620		-0.00011599		 0.00002613		-0.00037244	
Si		6.72232257		2.77905748		0.99926620		-0.00011599		-0.00002613		-0.00037244	
Si		1.76155730		13.46324240		4.10423807		 0.00011599		 0.00002613		 0.00037244	
Si		6.67055717		10.90020743		4.10423807		-0.00033087		-0.00034150		 0.00035042	
Si		1.81332172		5.34209148		0.99926620		 0.00033087		 0.00034150		-0.00035042	
Si		1.81332172		10.90020743		0.99926620		 0.00033087		-0.00034150		-0.00035042	
Si		6.67055717		5.34209148		4.10423807		-0.00033087		 0.00034150		 0.00035042	
O		2.58846753		1.92471282		3.00290199		-0.00081208		 0.00013874		-0.00009988	
O		5.89541038		14.31758805		2.10060228		 0.00081208		-0.00013874		 0.00009988	
O		5.89541038		1.92471282		2.10060228		 0.00081208		 0.00013874		 0.00009988	
O		2.58846753		14.31758805		3.00290199		-0.00081208		-0.00013874		-0.00009988	
O		7.49746838		10.04586276		3.00290199		-0.00076515		 0.00017260		-0.00004822	
O		0.98641051		6.19643811		2.10060228		 0.00076515		-0.00017260		 0.00004822	
O		0.98641051		10.04586276		2.10060228		 0.00076515		 0.00017260		 0.00004822	
O		7.49746838		6.19643811		3.00290199		-0.00076515		-0.00017260		-0.00004822	
O		0.80703271		1.39683824		1.10797109		 0.00012759		 0.00068662		 0.00032841	
O		7.67684716		14.84546263		3.99553318		-0.00012759		-0.00068662		-0.00032841	
O		7.67684716		1.39683824		3.99553318		-0.00012759		 0.00068662		-0.00032841	
O		0.80703271		14.84546263		1.10797109		 0.00012759		-0.00068662		 0.00032841	
O		5.71603258		9.51798917		1.10797109		 0.00033159		 0.00069122		 0.00037953	
O		2.76784729		6.72431268		3.99553318		-0.00033159		-0.00069122		-0.00037953	
O		2.76784729		9.51798917		3.99553318		-0.00033159		 0.00069122		-0.00037953	
O		5.71603258		6.72431268		1.10797109		 0.00033159		-0.00069122		 0.00037953	
O		2.52914030		4.02809065		4.04860928		-0.00013820		 0.00004522		 0.00006557	
O		5.95473957		12.21420924		1.05489400		 0.00013820		-0.00004522		-0.00006557	
O		5.95473957		4.02809065		1.05489400		 0.00013820		 0.00004522		-0.00006557	
O		2.52914030		12.21420924		4.04860928		-0.00013820		-0.00004522		 0.00006557	
O		7.43813919		12.14924059		4.04860928		 0.00006930		 0.00034890		 0.00005922	
O		1.04573970		4.09306028		1.05489400		-0.00006930		-0.00034890		-0.00005922	
O		1.04573970		12.14924059		1.05489400		-0.00006930		 0.00034890		-0.00005922	
O		7.43813919		4.09306028		4.04860928		 0.00006930		-0.00034890		 0.00005922	
O		2.91896987		0.00000000		1.49073268		-0.00001285		0.00000000		 0.00024259	
O		5.56491000		0.00000000		3.61276962		 0.00001285		0.00000000		-0.00024259	
O		7.82796876		8.12114994		1.49073268		 0.00004823		-0.00000000		 0.00024053	
O		0.65591013		8.12114994		3.61276962		-0.00004823		-0.00000000		-0.00024053	
O		0.19753030		2.78068236		3.69493646		 0.00017784		 0.00000393		 0.00058526	
O		8.28634957		13.46161753		1.40856682		-0.00017784		-0.00000393		-0.00058526	
O		8.28634957		2.78068236		1.40856682		-0.00017784		 0.00000393		-0.00058526	
O		0.19753030		13.46161753		3.69493646		 0.00017784		-0.00000393		 0.00058526	
O		5.10653018		10.90183230		3.69493646		 0.00043758		 0.00003830		 0.00064294	
O		3.37734970		5.34046758		1.40856682		-0.00043758		-0.00003830		-0.00064294	
O		3.37734970		10.90183230		1.40856682		-0.00043758		 0.00003830		-0.00064294	
O		5.10653018		5.34046758		3.69493646		 0.00043758		-0.00003830		 0.00064294	
O		0.12189047		0.00000000		3.65002599		-0.00015597		0.00000000		-0.00041218	
O		8.36198940		0.00000000		1.45347828		 0.00015597		0.00000000		 0.00041218	
O		5.03089034		8.12114994		3.65002599		 0.00015121		0.00000000		-0.00034910	
O		3.45298953		8.12114994		1.45347828		-0.00015121		0.00000000		 0.00034910	
O		3.26959224		2.18134060		0.50626810		-0.00082541		 0.00002733		 0.00016327	
O		5.21428665		14.06095928		4.59723617		 0.00082541		-0.00002733		-0.00016327	
O		5.21428665		2.18134060		4.59723617		 0.00082541		 0.00002733		-0.00016327	
O		3.26959224		14.06095928		0.50626810		-0.00082541		-0.00002733		 0.00016327	
O		8.17859310		10.30249055		0.50626810		-0.00074295		 0.00008971		 0.00013388	
O		0.30528678		5.93981032		4.59723617		 0.00074295		-0.00008971		-0.00013388	
O		0.30528678		10.30249055		4.59723617		 0.00074295		 0.00008971		-0.00013388	
O		8.17859310		5.93981032		0.50626810		-0.00074295		-0.00008971		 0.00013388	
Ca		-0.66706043		4.50886337		2.55175213		0.00000000		 0.00074402		0.00000000	
Ca		-0.66706043		11.73343750		2.55175213		0.00000000		-0.00074402		0.00000000	
Ca		4.24193944		12.63001233		2.55175213		0.00000000		 0.00070063		0.00000000	
Ca		4.24193944		3.61228756		2.55175213		0.00000000		-0.00070063		0.00000000	
Mg		0.00000000		0.00000000		0.00000000		0.00000000		0.00000000		0.00000000	
Mg		4.90899987		8.12114994		0.00000000		0.00000000		0.00000000		0.00000000	
Mg		0.00000000		2.86838950		0.00000000		0.00000000		 0.00040571		0.00000000	
Mg		0.00000000		13.37391039		0.00000000		0.00000000		-0.00040571		0.00000000	
Mg		4.90899987		10.98953944		0.00000000		0.00000000		 0.00036705		0.00000000	
Mg		4.90899987		5.25275946		0.00000000		0.00000000		-0.00036705		0.00000000	
Mg		-0.66706043		1.42607428		2.55175213		0.00000000		 0.00028835		0.00000000	
Mg		-0.66706043		14.81622561		2.55175213		0.00000000		-0.00028835		0.00000000	
Mg		4.24193944		9.54722521		2.55175213		0.00000000		 0.00028706		0.00000000	
Mg		4.24193944		6.69507566		2.55175213		0.00000000		-0.00028706		0.00000000	
H		0.92650893		0.00000000		3.92969760		 0.00067002		-0.00000000		-0.00012092	
H		7.55736996		0.00000000		1.17380569		-0.00067002		-0.00000000		 0.00012092	
H		5.83550880		8.12114994		3.92969760		 0.00040551		-0.00000000		-0.00017413	
H		2.64837009		8.12114994		1.17380569		-0.00040551		-0.00000000		 0.00017413	
