# total energy = -44009.4338175 eV	

CRYSTAL	
PRIMVEC	
		9.81799975		0.00000000		0.00000000	
		0.00000000		19.85170095		0.00000000	
		-1.33411890		0.00000000		5.10350427	
PRIMCOORD
   82 1	
Si		2.35753443		1.66754308		1.51267886		 0.00034976		 0.00007786		-0.00014583	
Si		6.12634446		18.18415788		3.59082443		-0.00034976		-0.00007786		 0.00014583	
Si		6.12634446		1.66754308		3.59082443		-0.00034976		 0.00007786		 0.00014583	
Si		2.35753443		18.18415788		1.51267886		 0.00034976		-0.00007786		-0.00014583	
Si		7.26653430		11.59339257		1.51267886		 0.00034937		 0.00007434		-0.00014585	
Si		1.21734557		8.25830740		3.59082443		-0.00034937		-0.00007434		 0.00014585	
Si		1.21734557		11.59339257		3.59082443		-0.00034937		 0.00007434		 0.00014585	
Si		7.26653430		8.25830740		1.51267886		 0.00034937		-0.00007434		-0.00014585	
Si		1.76155730		3.39662636		4.10423807		-0.00009944		 0.00026650		-0.00020387	
Si		6.72232257		16.45507460		0.99926620		 0.00009944		-0.00026650		 0.00020387	
Si		6.72232257		3.39662636		0.99926620		 0.00009944		 0.00026650		 0.00020387	
Si		1.76155730		16.45507460		4.10423807		-0.00009944		-0.00026650		-0.00020387	
Si		6.67055717		13.32247683		4.10423807		-0.00010319		 0.00025955		-0.00020384	
Si		1.81332172		6.52922412		0.99926620		 0.00010319		-0.00025955		 0.00020384	
Si		1.81332172		13.32247683		0.99926620		 0.00010319		 0.00025955		 0.00020384	
Si		6.67055717		6.52922412		4.10423807		-0.00010319		-0.00025955		-0.00020384	
O		2.58846753		2.35242710		3.00290199		 0.00010412		-0.00027755		 0.00018093	
O		5.89541038		17.49927483		2.10060228		-0.00010412		 0.00027755		-0.00018093	
O		5.89541038		2.35242710		2.10060228		-0.00010412		-0.00027755		-0.00018093	
O		2.58846753		17.49927483		3.00290199		 0.00010412		 0.00027755		 0.00018093	
O		7.49746838		12.27827660		3.00290199		 0.00010395		-0.00027528		 0.00018310	
O		0.98641051		7.57342337		2.10060228		-0.00010395		 0.00027528		-0.00018310	
O		0.98641051		12.27827660		2.10060228		-0.00010395		-0.00027528		-0.00018310	
O		7.49746838		7.57342337		3.00290199		 0.00010395		 0.00027528		 0.00018310	
O		0.80703271		1.70724609		1.10797109		 0.00035246		 0.00019262		-0.00001388	
O		7.67684716		18.14445389		3.99553318		-0.00035246		-0.00019262		 0.00001388	
O		7.67684716		1.70724609		3.99553318		-0.00035246		 0.00019262		 0.00001388	
O		0.80703271		18.14445389		1.10797109		 0.00035246		-0.00019262		-0.00001388	
O		5.71603258		11.63309656		1.10797109		 0.00035147		 0.00019271		-0.00001341	
O		2.76784729		8.21860341		3.99553318		-0.00035147		-0.00019271		 0.00001341	
O		2.76784729		11.63309656		3.99553318		-0.00035147		 0.00019271		 0.00001341	
O		5.71603258		8.21860341		1.10797109		 0.00035147		-0.00019271		-0.00001341	
O		2.52914030		4.92322223		4.04860928		 0.00015234		 0.00014260		 0.00002879	
O		5.95473957		14.92847872		1.05489400		-0.00015234		-0.00014260		-0.00002879	
O		5.95473957		4.92322223		1.05489400		-0.00015234		 0.00014260		-0.00002879	
O		2.52914030		14.92847872		4.04860928		 0.00015234		-0.00014260		 0.00002879	
O		7.43813919		14.84907271		4.04860928		 0.00015474		 0.00014755		 0.00002896	
O		1.04573970		5.00262923		1.05489400		-0.00015474		-0.00014755		-0.00002896	
O		1.04573970		14.84907271		1.05489400		-0.00015474		 0.00014755		-0.00002896	
O		7.43813919		5.00262923		4.04860928		 0.00015474		-0.00014755		 0.00002896	
O		2.91896987		0.00000000		1.49073268		-0.00006468		-0.00000000		-0.00038033	
O		5.56491000		0.00000000		3.61276962		 0.00006468		-0.00000000		 0.00038033	
O		7.82796876		9.92584949		1.49073268		-0.00006531		0.00000000		-0.00038034	
O		0.65591013		9.92584949		3.61276962		 0.00006531		0.00000000		 0.00038034	
O		0.19753030		3.39861057		3.69493646		-0.00017245		-0.00027171		 0.00023254	
O		8.28634957		16.45308841		1.40856682		 0.00017245		 0.00027171		-0.00023254	
O		8.28634957		3.39861057		1.40856682		 0.00017245		-0.00027171		-0.00023254	
O		0.19753030		16.45308841		3.69493646		-0.00017245		 0.00027171		 0.00023254	
O		5.10653018		13.32446203		3.69493646		-0.00017032		-0.00027085		 0.00023286	
O		3.37734970		6.52723892		1.40856682		 0.00017032		 0.00027085		-0.00023286	
O		3.37734970		13.32446203		1.40856682		 0.00017032		-0.00027085		-0.00023286	
O		5.10653018		6.52723892		3.69493646		-0.00017032		 0.00027085		 0.00023286	
O		0.12189047		0.00000000		3.65002599		 0.00030943		0.00000000		 0.00030392	
O		8.36198940		0.00000000		1.45347828		-0.00030943		0.00000000		-0.00030392	
O		5.03089034		9.92584949		3.65002599		 0.00026416		0.00000000		 0.00029246	
O		3.45298953		9.92584949		1.45347828		-0.00026416		0.00000000		-0.00029246	
O		3.26959224		2.66608274		0.50626810		 0.00019614		-0.00029132		-0.00045827	
O		5.21428665		17.18561723		4.59723617		-0.00019614		 0.00029132		 0.00045827	
O		5.21428665		2.66608274		4.59723617		-0.00019614		-0.00029132		 0.00045827	
O		3.26959224		17.18561723		0.50626810		 0.00019614		 0.00029132		-0.00045827	
O		8.17859310		12.59193322		0.50626810		 0.00019736		-0.00028845		-0.00046112	
O		0.30528678		7.25976675		4.59723617		-0.00019736		 0.00028845		 0.00046112	
O		0.30528678		12.59193322		4.59723617		-0.00019736		-0.00028845		 0.00046112	
O		8.17859310		7.25976675		0.50626810		 0.00019736		 0.00028845		-0.00046112	
Ca		-0.66706043		5.51083148		2.55175213		0.00000000		-0.00019044		0.00000000	
Ca		-0.66706043		14.34086849		2.55175213		0.00000000		 0.00019044		0.00000000	
Ca		4.24193944		15.43668195		2.55175213		0.00000000		-0.00019166		0.00000000	
Ca		4.24193944		4.41501802		2.55175213		0.00000000		 0.00019166		0.00000000	
Mg		0.00000000		0.00000000		0.00000000		0.00000000		0.00000000		0.00000000	
Mg		4.90899987		9.92584949		0.00000000		0.00000000		0.00000000		0.00000000	
Mg		0.00000000		3.50581037		0.00000000		0.00000000		-0.00036564		0.00000000	
Mg		0.00000000		16.34589058		0.00000000		0.00000000		 0.00036564		0.00000000	
Mg		4.90899987		13.43165986		0.00000000		0.00000000		-0.00036606		0.00000000	
Mg		4.90899987		6.42004109		0.00000000		0.00000000		 0.00036606		0.00000000	
Mg		-0.66706043		1.74297870		2.55175213		0.00000000		 0.00010525		0.00000000	
Mg		-0.66706043		18.10872029		2.55175213		0.00000000		-0.00010525		0.00000000	
Mg		4.24193944		11.66883015		2.55175213		0.00000000		 0.00010464		0.00000000	
Mg		4.24193944		8.18287080		2.55175213		0.00000000		-0.00010464		0.00000000	
H		0.92650893		0.00000000		3.92969760		-0.00077939		0.00000000		 0.00056129	
H		7.55736996		0.00000000		1.17380569		 0.00077939		0.00000000		-0.00056129	
H		5.83550880		9.92584949		3.92969760		-0.00073759		0.00000000		 0.00057236	
H		2.64837009		9.92584949		1.17380569		 0.00073759		0.00000000		-0.00057236	
