# total energy = -24712.2881731 eV	

CRYSTAL	
PRIMVEC	
		8.36107490		0.00000000		0.00000000	
		0.00000000		8.69499951		0.00000000	
		0.00000000		0.00000000		5.08900168	
PRIMCOORD
   40 1	
O		1.01169006		0.75124760		0.29974203		 0.00004913		 0.00077943		-0.00003179	
O		1.01169006		7.94375108		2.84424203		 0.00004913		-0.00077943		-0.00003179	
O		5.19222668		5.09874819		2.24475798		 0.00004913		 0.00077943		 0.00003179	
O		5.19222668		3.59625216		4.78925798		 0.00004913		-0.00077943		 0.00003179	
O		3.15128913		2.13897031		0.53739806		 0.00005904		-0.00044440		 0.00012660	
O		3.15128913		6.55603003		3.08189890		 0.00005904		 0.00044440		 0.00012660	
O		7.33182575		6.48647007		2.00710195		 0.00005904		-0.00044440		-0.00012660	
O		7.33182575		2.20853028		4.55160196		 0.00005904		 0.00044440		-0.00012660	
O		2.99159260		8.35502483		1.40456360		 0.00059374		 0.00040826		-0.00034397	
O		2.99159260		0.33997385		3.94906360		 0.00059374		-0.00040826		-0.00034397	
O		7.17213005		4.00752507		1.13993557		 0.00059374		 0.00040826		 0.00034397	
O		7.17213005		4.68747360		3.68443558		 0.00059374		-0.00040826		 0.00034397	
O		7.34436819		7.90114555		4.45338357		-0.00041615		 0.00005813		 0.00007403	
O		7.34436819		0.79385396		1.90888357		-0.00041615		-0.00005813		 0.00007403	
O		3.16383074		3.55364579		3.18011561		-0.00041615		 0.00005813		-0.00007403	
O		3.16383074		5.14135288		0.63561560		-0.00041615		-0.00005813		-0.00007403	
O		5.19557194		6.61080762		4.87882516		-0.00004279		-0.00026982		-0.00006521	
O		5.19557194		2.08419190		2.33432432		-0.00004279		 0.00026982		-0.00006521	
O		1.01503366		2.26330786		2.75467569		-0.00004279		-0.00026982		 0.00006521	
O		1.01503366		6.43169082		0.21017568		-0.00004279		 0.00026982		 0.00006521	
O		5.40459798		8.27503108		2.86103609		-0.00006458		 0.00002337		 0.00007608	
O		5.40459798		0.41996927		0.31653608		-0.00006458		-0.00002337		 0.00007608	
O		1.22406137		3.92753133		4.77246393		-0.00006458		 0.00002337		-0.00007608	
O		1.22406137		4.76746902		2.22796392		-0.00006458		-0.00002337		-0.00007608	
Si		2.48073092		0.77124562		0.34808827		 0.00029932		 0.00023020		-0.00068090	
Si		2.48073092		7.92375306		2.89258828		 0.00029932		-0.00023020		-0.00068090	
Si		6.66126754		5.11874621		2.19641257		 0.00029932		 0.00023020		 0.00068090	
Si		6.66126754		3.57625330		4.74091174		 0.00029932		-0.00023020		 0.00068090	
Si		5.86863764		7.91592709		4.38671821		-0.00032164		 0.00000663		 0.00007760	
Si		5.86863764		0.77907158		1.84221821		-0.00032164		-0.00000663		 0.00007760	
Si		1.68810102		3.56842817		3.24678180		-0.00032164		 0.00000663		-0.00007760	
Si		1.68810102		5.12657217		0.70228180		-0.00032164		-0.00000663		-0.00007760	
Mg		8.34017222		0.83558910		3.64372383		-0.00021478		 0.00011046		 0.00047625	
Mg		8.34017222		7.85940957		1.09922383		-0.00021478		-0.00011046		 0.00047625	
Mg		4.15963476		5.18308886		3.98977618		-0.00021478		 0.00011046		-0.00047625	
Mg		4.15963476		3.51190982		1.44527618		-0.00021478		-0.00011046		-0.00047625	
Mg		0.05016561		2.28417627		1.09464363		 0.00005870		-0.00024495		 0.00059383	
Mg		0.05016561		6.41082408		3.63914364		 0.00005870		 0.00024495		 0.00059383	
Mg		4.23070390		6.63167602		1.44985637		 0.00005870		-0.00024495		-0.00059383	
Mg		4.23070390		2.06332433		3.99435554		 0.00005870		 0.00024495		-0.00059383	
