# total energy = -24715.9240321 eV	

CRYSTAL	
PRIMVEC	
		9.71692479		0.00000000		0.00000000	
		0.00000000		8.69499581		0.00000000	
		0.00000000		0.00000000		5.08899643	
PRIMCOORD
   40 1	
O		1.17574790		0.75124752		0.29974187		 0.00000114		 0.00051155		 0.00016116	
O		1.17574790		7.94375120		2.84424203		 0.00000114		-0.00051155		 0.00016116	
O		6.03421029		5.09874834		2.24475829		 0.00000114		 0.00051155		-0.00016116	
O		6.03421029		3.59625233		4.78925748		 0.00000114		-0.00051155		-0.00016116	
O		3.66230895		2.13897013		0.53739841		-0.00037466		-0.00056604		-0.00000619	
O		3.66230895		6.55602956		3.08189857		-0.00037466		 0.00056604		-0.00000619	
O		8.52077037		6.48646998		2.00710175		-0.00037466		-0.00056604		 0.00000619	
O		8.52077037		2.20852971		4.55160191		-0.00037466		 0.00056604		 0.00000619	
O		3.47671569		8.35502490		1.40456399		 0.00014858		-0.00076879		-0.00069091	
O		3.47671569		0.33997382		3.94906415		 0.00014858		 0.00076879		-0.00069091	
O		8.33517808		4.00752505		1.13993617		 0.00014858		-0.00076879		 0.00069091	
O		8.33517808		4.68747367		3.68443633		 0.00014858		 0.00076879		 0.00069091	
O		8.53534673		7.90114540		4.45338420		 0.00003602		-0.00027956		 0.00010216	
O		8.53534673		0.79385429		1.90888404		 0.00003602		 0.00027956		 0.00010216	
O		3.67688531		3.55364555		3.18011628		 0.00003602		-0.00027956		-0.00010216	
O		3.67688531		5.14135317		0.63561612		 0.00003602		 0.00027956		-0.00010216	
O		6.03809706		6.61080775		4.87882518		 0.00051792		 0.00019791		 0.00030648	
O		6.03809706		2.08419194		2.33432405		 0.00051792		-0.00019791		 0.00030648	
O		1.17963467		2.26330790		2.75467627		 0.00051792		 0.00019791		-0.00030648	
O		1.17963467		6.43169082		0.21017611		 0.00051792		-0.00019791		-0.00030648	
O		6.28102018		8.27503129		2.86103579		-0.00032762		-0.00007385		 0.00012541	
O		6.28102018		0.41996938		0.31653563		-0.00032762		 0.00007385		 0.00012541	
O		1.42255779		3.92753047		4.77246372		-0.00032762		-0.00007385		-0.00012541	
O		1.42255779		4.76746922		2.22796356		-0.00032762		 0.00007385		-0.00012541	
Si		2.88301158		0.77124592		0.34808842		 0.00037465		-0.00069208		-0.00030656	
Si		2.88301158		7.92375280		2.89258761		 0.00037465		 0.00069208		-0.00030656	
Si		7.74147398		5.11874577		2.19641271		 0.00037465		-0.00069208		 0.00030656	
Si		7.74147398		3.57625295		4.74091190		 0.00037465		 0.00069208		 0.00030656	
Si		6.82030854		7.91592679		4.38671833		-0.00015503		 0.00033525		-0.00005668	
Si		6.82030854		0.77907194		1.84221817		-0.00015503		-0.00033525		-0.00005668	
Si		1.96184711		3.56842791		3.24678215		-0.00015503		 0.00033525		 0.00005668	
Si		1.96184711		5.12657178		0.70228199		-0.00015503		-0.00033525		 0.00005668	
Mg		9.69263150		0.83558946		3.64372436		-0.00016435		-0.00037735		-0.00033728	
Mg		9.69263150		7.85941024		1.09922420		-0.00016435		 0.00037735		-0.00033728	
Mg		4.83417008		5.18308930		3.98977612		-0.00016435		-0.00037735		 0.00033728	
Mg		4.83417008		3.51191039		1.44527596		-0.00016435		 0.00037735		 0.00033728	
Mg		0.05830155		2.28417597		1.09464364		-0.00005664		-0.00081655		-0.00010791	
Mg		0.05830155		6.41082372		3.63914380		-0.00005664		 0.00081655		-0.00010791	
Mg		4.91676394		6.63167582		1.44985555		-0.00005664		-0.00081655		 0.00010791	
Mg		4.91676394		2.06332388		3.99435571		-0.00005664		 0.00081655		 0.00010791	
