# total energy = -24716.3087178 eV	

CRYSTAL	
PRIMVEC	
		9.49094972		0.00000000		0.00000000	
		0.00000000		8.69500071		0.00000000	
		0.00000000		0.00000000		5.08899978	
PRIMCOORD
   40 1	
O		1.14840492		0.75124758		0.29974222		 0.00001245		 0.00026695		 0.00009858	
O		1.14840492		7.94375123		2.84424212		 0.00001245		-0.00026695		 0.00009858	
O		5.89387978		5.09874794		2.24475767		 0.00001245		 0.00026695		-0.00009858	
O		5.89387978		3.59625182		4.78925756		 0.00001245		-0.00026695		-0.00009858	
O		3.57713895		2.13896964		0.53739845		-0.00039846		-0.00039092		 0.00009190	
O		3.57713895		6.55603012		3.08189929		-0.00039846		 0.00039092		 0.00009190	
O		8.32261286		6.48647000		2.00710239		-0.00039846		-0.00039092		-0.00009190	
O		8.32261286		2.20852976		4.55160228		-0.00039846		 0.00039092		-0.00009190	
O		3.39586181		8.35502445		1.40456375		 0.00061027		-0.00075797		-0.00048209	
O		3.39586181		0.33997436		3.94906364		 0.00061027		 0.00075797		-0.00048209	
O		8.14133667		4.00752505		1.13993614		 0.00061027		-0.00075797		 0.00048209	
O		8.14133667		4.68747377		3.68443603		 0.00061027		 0.00075797		 0.00048209	
O		8.33684928		7.90114541		4.45338424		-0.00025559		-0.00021442		-0.00024185	
O		8.33684928		0.79385435		1.90888435		-0.00025559		 0.00021442		-0.00024185	
O		3.59137632		3.55364600		3.18011544		-0.00025559		-0.00021442		 0.00024185	
O		3.59137632		5.14135281		0.63561555		-0.00025559		 0.00021442		 0.00024185	
O		5.89767616		6.61080808		4.87882460		 0.00017498		 0.00024646		 0.00026233	
O		5.89767616		2.08419168		2.33432376		 0.00017498		-0.00024646		 0.00026233	
O		1.15220130		2.26330773		2.75467602		 0.00017498		 0.00024646		-0.00026233	
O		1.15220130		6.43169108		0.21017613		 0.00017498		-0.00024646		-0.00026233	
O		6.13494990		8.27503093		2.86103635		-0.00030992		-0.00035582		-0.00049327	
O		6.13494990		0.41996883		0.31653646		-0.00030992		 0.00035582		-0.00049327	
O		1.38947504		3.92753058		4.77246427		-0.00030992		-0.00035582		 0.00049327	
O		1.38947504		4.76746919		2.22796438		-0.00030992		 0.00035582		 0.00049327	
Si		2.81596478		0.77124596		0.34808817		 0.00023297		-0.00075052		-0.00011182	
Si		2.81596478		7.92375285		2.89258807		 0.00023297		 0.00075052		-0.00011182	
Si		7.56143964		5.11874632		2.19641267		 0.00023297		-0.00075052		 0.00011182	
Si		7.56143964		3.57625249		4.74091161		 0.00023297		 0.00075052		 0.00011182	
Si		6.66169761		7.91592661		4.38671791		-0.00022217		 0.00030969		-0.00041297	
Si		6.66169761		0.77907220		1.84221802		-0.00022217		-0.00030969		-0.00041297	
Si		1.91622275		3.56842816		3.24678177		-0.00022217		 0.00030969		 0.00041297	
Si		1.91622275		5.12657161		0.70228188		-0.00022217		-0.00030969		 0.00041297	
Mg		9.46722140		0.83558891		3.64372366		-0.00012549		-0.00042837		-0.00048519	
Mg		9.46722140		7.85940991		1.09922376		-0.00012549		 0.00042837		-0.00048519	
Mg		4.72174654		5.18308926		3.98977602		-0.00012549		-0.00042837		 0.00048519	
Mg		4.72174654		3.51190955		1.44527613		-0.00012549		 0.00042837		 0.00048519	
Mg		0.05694570		2.28417548		1.09464438		 0.00028094		-0.00061534		-0.00035113	
Mg		0.05694570		6.41082428		3.63914427		 0.00028094		 0.00061534		-0.00035113	
Mg		4.80241961		6.63167584		1.44985551		 0.00028094		-0.00061534		 0.00035113	
Mg		4.80241961		2.06332393		3.99435635		 0.00028094		 0.00061534		 0.00035113	
