# total energy = -22466.7171928 eV	

CRYSTAL	
PRIMVEC	
		9.68355958		0.00000000		0.49906473	
		0.00000000		8.23704408		0.00000000	
		-0.29903870		0.00000000		5.30715831	
PRIMCOORD
   40 1	
Ca		7.04858434		0.45685059		0.90936118		 0.00007890		-0.00010724		-0.00025435	
Ca		2.33592387		7.78020978		4.89685734		-0.00006880		 0.00009437		 0.00025108	
Ca		2.48544503		4.57535996		2.24327818		-0.00006919		-0.00009457		 0.00025141	
Ca		6.89906318		3.66167326		3.56294033		 0.00007870		 0.00010717		-0.00025444	
Mg		2.15433879		1.37037525		2.11937973		 0.00024474		 0.00063836		-0.00029878	
Mg		7.23017304		6.86666702		3.68683335		-0.00024107		-0.00064500		 0.00029668	
Mg		7.37969510		5.48890272		1.03325420		-0.00024109		 0.00064518		 0.00029700	
Mg		2.00481764		2.74814860		4.77295888		 0.00024483		-0.00063803		-0.00029881	
Si		4.69241163		1.39883516		3.08703951		 0.00006378		 0.00000883		 0.00035877	
Si		4.69206580		6.83820077		2.71916814		 0.00004630		-0.00000383		-0.00034744	
Si		4.84158696		5.51736897		0.06558899		 0.00004588		 0.00000344		-0.00034749	
Si		4.54289047		2.71968959		5.74061867		 0.00006351		-0.00000840		 0.00035861	
Si		0.28489791		6.97953982		1.47336036		-0.00078546		 0.00040719		 0.00001941	
Si		9.09970988		1.25754952		4.33286720		 0.00043981		-0.00056703		-0.00000247	
Si		9.24922923		2.86097524		1.67928895		 0.00044363		 0.00056630		-0.00000249	
Si		0.13537404		5.37603263		4.12693952		-0.00077505		-0.00041479		 0.00001807	
O		3.58078198		1.55234688		0.50498630		-0.00034279		 0.00011953		 0.00062058	
O		5.80375067		6.68469357		5.30123131		 0.00029473		-0.00012400		-0.00062266	
O		5.95327183		5.67087616		2.64765216		 0.00029461		 0.00012389		-0.00062252	
O		3.43125992		2.56617697		3.15856455		-0.00034260		-0.00011987		 0.00062064	
O		3.72601836		4.04346633		0.35500796		-0.00008740		 0.00058068		-0.00006997	
O		5.65849166		4.19358861		5.45122141		 0.00004552		-0.00058372		 0.00006194	
O		5.80801282		8.16198113		2.79764226		 0.00004519		 0.00058385		 0.00006204	
O		3.57649811		0.07505752		3.00858802		-0.00008795		-0.00058098		-0.00006999	
O		5.62134992		2.26627552		1.88590829		-0.00008884		-0.00044830		-0.00013972	
O		3.76317911		5.97077218		3.92030027		 0.00004463		 0.00044307		 0.00013646	
O		3.91270027		6.38479756		1.26672202		 0.00004452		-0.00044279		 0.00013639	
O		5.47182876		1.85224833		4.53948744		-0.00008904		 0.00044836		-0.00013985	
O		1.17436603		2.90420241		1.20001499		 0.00083513		 0.00004317		 0.00029759	
O		8.21008696		5.33284710		4.60620805		-0.00064144		-0.00005631		-0.00029530	
O		8.35960631		7.02272263		1.95262890		-0.00063594		 0.00005634		-0.00029507	
O		1.02484396		1.21432054		3.85359505		 0.00083738		-0.00004367		 0.00029742	
O		1.07711870		0.08535621		1.17321086		 0.00055810		 0.00008945		 0.00047382	
O		8.30736778		8.15164441		4.63302123		-0.00044315		 0.00007961		-0.00049577	
O		8.45688985		4.20392532		1.97944208		-0.00044418		-0.00007824		-0.00049540	
O		0.92759845		4.03316492		3.82678911		 0.00055340		-0.00008198		 0.00047484	
O		0.95369644		5.95753941		0.30627295		 0.00051655		 0.00041478		-0.00028623	
O		8.43081087		2.27950376		5.49994919		-0.00047623		-0.00041411		 0.00029550	
O		8.58033203		1.83902009		2.84637003		-0.00047607		 0.00041359		 0.00029672	
O		0.80417528		6.39802942		2.95985210		 0.00051649		-0.00041428		-0.00028622	
