# total energy = -22469.442213 eV	

CRYSTAL	
PRIMVEC	
		9.63972495		0.00177439		-0.77392287	
		-0.00173818		8.72264700		-0.00003621	
		-1.00711004		-0.00009958		5.08025392	
PRIMCOORD
   40 1	
Ca		7.23156448		0.47885210		-0.57849213		-0.00044785		-0.00009542		-0.00025727	
Ca		1.39930501		8.24551859		4.88466566		 0.00041084		 0.00009314		 0.00026767	
Ca		1.90298768		4.83925129		2.34432505		 0.00041930		-0.00008085		 0.00028910	
Ca		6.72775869		3.88507233		1.96195983		-0.00044925		 0.00008257		-0.00030421	
Mg		1.90706244		1.39779769		2.34594373		 0.00003584		 0.00038707		-0.00010376	
Mg		6.72394557		7.32642272		1.96039004		-0.00005003		-0.00035283		 0.00007121	
Mg		7.22791160		5.76005998		-0.57964277		-0.00005307		 0.00034853		 0.00007843	
Mg		1.40293074		2.96435235		4.88592674		 0.00005028		-0.00040015		-0.00009077	
Si		4.86080467		1.34757527		1.14019910		 0.00019544		-0.00014649		 0.00031345	
Si		3.77015717		7.37675831		3.16584497		-0.00019711		 0.00057760		-0.00019559	
Si		4.27379547		5.70882725		0.62576237		 0.00009256		-0.00028898		-0.00024161	
Si		4.35684860		3.01574261		3.68030976		 0.00038476		 0.00022210		 0.00028160	
Si		0.04085800		7.37601777		1.53217861		 0.00028942		 0.00001063		-0.00012105	
Si		8.58994631		1.34814289		2.77443580		-0.00001162		-0.00001467		 0.00007866	
Si		9.09315551		3.01598342		0.23423099		-0.00005379		 0.00027810		 0.00013837	
Si		-0.46243177		5.70795725		4.07229108		 0.00017734		 0.00007782		-0.00006893	
O		3.28956870		1.40000662		0.84527861		-0.00010768		 0.00028525		 0.00042787	
O		5.34145469		7.32449986		3.46097639		-0.00002440		-0.00033065		-0.00047421	
O		5.84522246		5.76146229		0.92086845		-0.00016370		 0.00031578		-0.00050372	
O		2.78569954		2.96300164		3.38534401		-0.00020715		-0.00032335		 0.00045247	
O		3.53351718		4.31351189		0.79866653		-0.00000713		-0.00010782		-0.00002734	
O		5.09709702		4.41111138		3.50747713		-0.00000231		 0.00010796		 0.00001467	
O		5.59953038		8.67503818		0.96738276		 0.00011047		-0.00021600		 0.00002570	
O		3.03157178		0.04964665		3.33898631		 0.00006441		-0.00016037		-0.00004162	
O		5.70334565		2.38504907		0.10917465		 0.00016112		 0.00011453		 0.00001290	
O		2.92759807		6.33938047		4.19678794		-0.00020494		-0.00014744		 0.00003127	
O		3.43109425		6.74623225		1.65664288		-0.00020281		 0.00008667		 0.00001049	
O		5.19984767		1.97846073		2.64935140		 0.00016203		-0.00007325		 0.00000294	
O		1.02449090		2.96055643		1.30297747		-0.00000464		-0.00008720		 0.00006128	
O		7.60642839		5.76357255		3.00328840		-0.00018153		 0.00011576		-0.00005573	
O		8.10974803		7.32338453		0.46322119		-0.00022231		-0.00006572		-0.00007168	
O		0.52127536		1.40083769		3.84307365		 0.00000383		 0.00010569		 0.00008495	
O		0.78359328		0.04777902		1.35586600		-0.00052109		-0.00004097		-0.00020508	
O		7.84758764		8.67620511		2.95073483		 0.00048103		 0.00005411		 0.00017925	
O		8.35209413		4.41050483		0.41039331		 0.00052691		-0.00017116		 0.00019748	
O		0.27847933		4.31360151		3.89579017		-0.00038844		-0.00003221		-0.00019787	
O		0.88377287		6.33696784		0.50193182		 0.00003168		-0.00005860		-0.00007520	
O		7.74698889		2.38703258		3.80469979		-0.00003795		-0.00000446		-0.00003705	
O		8.25068966		1.97697966		1.26457917		-0.00008776		-0.00009462		 0.00005563	
O		0.38017711		6.74720997		3.04202166		 0.00002930		 0.00002987		-0.00000271	
