# total energy = -117599.966282 eV	

CRYSTAL	
PRIMVEC	
		10.58800046		0.00000000		0.42351959	
		0.00000000		14.09699933		0.00000000	
		-2.06315332		0.00000000		9.67136367	
PRIMCOORD
   156 1	
Si		8.21227891		0.01395555		1.05174174		 0.00018469		 0.00001721		-0.00013333	
Si		0.31256929		14.08304378		9.04314153		-0.00018469		-0.00001721		 0.00013333	
Si		1.34414489		7.06245627		4.20745969		-0.00018469		 0.00001721		 0.00013333	
Si		7.18070225		7.03454412		5.88742358		 0.00018469		-0.00001721		-0.00013333	
Si		3.87814905		2.67335512		6.72515059		-0.00026741		-0.00003051		 0.00010512	
Si		4.64669809		11.42364527		3.36973268		 0.00026741		 0.00003051		-0.00010512	
Si		3.61512248		9.72185478		8.20541452		 0.00026741		-0.00003051		-0.00010512	
Si		4.90972571		4.37514454		1.88946875		-0.00026741		 0.00003051		 0.00010512	
Si		1.37860460		1.76917342		4.21761747		-0.00004872		 0.00015446		 0.00007050	
Si		7.14624253		12.32782696		5.87726686		 0.00004872		-0.00015446		-0.00007050	
Si		8.17781814		8.81767308		1.04158503		 0.00004872		 0.00015446		-0.00007050	
Si		0.34702900		5.27932730		9.05329824		-0.00004872		-0.00015446		 0.00007050	
Si		7.08915937		1.73858248		5.87254508		 0.00021695		 0.00024841		 0.00001242	
Si		1.43568777		12.35841685		4.22233819		-0.00021695		-0.00024841		-0.00001242	
Si		0.40411217		8.78708320		9.05802003		-0.00021695		 0.00024841		-0.00001242	
Si		8.12073603		5.30991718		1.03686324		 0.00021695		-0.00024841		 0.00001242	
Mg		4.26242357		0.00000000		5.04744163		-0.00000000		0.00000000		-0.00000000	
Mg		5.29400023		7.04849966		0.21175980		0.00000000		0.00000000		0.00000000	
Mg		4.53499649		2.46006837		3.65758888		 0.00004921		-0.00018053		 0.00001682	
Mg		3.98985065		11.63693308		6.43729544		-0.00004921		 0.00018053		-0.00001682	
Mg		5.02142837		9.50856803		1.60161255		-0.00004921		-0.00018053		-0.00001682	
Mg		3.50341877		4.58843341		8.49326966		 0.00004921		 0.00018053		 0.00001682	
Mg		5.29400023		0.00000000		0.21175980		0.00000000		0.00000000		0.00000000	
Mg		4.26242357		7.04849966		5.04744163		0.00000000		0.00000000		-0.00000000	
Mg		6.30620655		0.03510186		3.11150314		-0.00006983		-0.00016662		 0.00018282	
Mg		2.21864058		14.06189853		6.98338013		 0.00006983		 0.00016662		-0.00018282	
Mg		3.25021725		7.08360152		2.14769830		 0.00006983		-0.00016662		-0.00018282	
Mg		5.27462989		7.01339781		7.94718497		-0.00006983		 0.00016662		 0.00018282	
Mg		0.48126398		0.00493372		1.50574313		-0.00006501		-0.00000377		 0.00019512	
Mg		8.04358421		14.09206561		8.58914014		 0.00006501		 0.00000377		-0.00019512	
Mg		9.07515981		7.05343444		3.75345830		 0.00006501		-0.00000377		-0.00019512	
Mg		-0.55031268		7.04356595		6.34142497		-0.00006501		 0.00000377		 0.00019512	
Mg		-0.62035215		0.00493372		6.16617530		 0.00011896		-0.00009970		-0.00013204	
Mg		9.14519928		14.09206561		3.92870797		-0.00011896		 0.00009970		 0.00013204	
Mg		8.11362156		7.05343444		8.76438981		-0.00011896		-0.00009970		 0.00013204	
Mg		0.41122451		7.04356595		1.33049346		 0.00011896		 0.00009970		-0.00013204	
Mg		3.27823536		0.03904904		2.23260461		 0.00023751		 0.00013578		 0.00002650	
Mg		5.24661283		14.05795134		7.86227866		-0.00023751		-0.00013578		-0.00002650	
Mg		6.27818949		7.08754870		3.02659682		-0.00023751		 0.00013578		-0.00002650	
Mg		2.24665764		7.00945062		7.06828751		 0.00023751		-0.00013578		 0.00002650	
Mg		6.61944553		2.39564397		1.47045584		-0.00034831		-0.00007506		-0.00010847	
Mg		1.90540266		11.70135642		8.62442743		 0.00034831		 0.00007506		 0.00010847	
Mg		2.93697932		9.44414363		3.78874560		 0.00034831		-0.00007506		 0.00010847	
Mg		5.58786781		4.65285569		6.30613767		-0.00034831		 0.00007506		-0.00010847	
Mg		-1.25897049		2.43920393		9.40808491		-0.00023910		 0.00015376		-0.00048483	
Mg		9.78381762		11.65779646		0.68679835		 0.00023910		-0.00015376		 0.00048483	
Mg		8.75224096		9.48770359		5.52248019		 0.00023910		 0.00015376		 0.00048483	
Mg		-0.22739382		4.60929574		4.57240414		-0.00023910		-0.00015376		-0.00048483	
Mg		0.76278986		2.49798783		7.36514435		-0.00070202		 0.00007133		-0.00024825	
Mg		7.76205728		11.59901150		2.72973998		 0.00070202		-0.00007133		 0.00024825	
Mg		6.73048061		9.54648855		7.56542076		 0.00070202		 0.00007133		 0.00024825	
Mg		1.79436652		4.55051078		2.52946251		-0.00070202		-0.00007133		-0.00024825	
Mg		6.35374972		2.48008510		8.98251596		-0.00062440		-0.00056717		-0.00019990	
Mg		2.17109847		11.61691529		1.11236837		 0.00062440		 0.00056717		 0.00019990	
Mg		1.13952075		9.52858582		5.94804914		 0.00062440		-0.00056717		 0.00019990	
Mg		7.38532638		4.56841457		4.14683413		-0.00062440		 0.00056717		-0.00019990	
Mg		3.62291619		2.37633085		0.58481690		 0.00046670		-0.00013529		-0.00016040	
Mg		4.90193095		11.72066954		9.51006743		-0.00046670		 0.00013529		 0.00016040	
Mg		5.93350655		9.42483051		4.67438454		-0.00046670		-0.00013529		 0.00016040	
Mg		2.59133952		4.67216881		5.42049873		 0.00046670		 0.00013529		-0.00016040	
Mg		9.48227926		2.50221688		2.31855891		-0.00013987		-0.00006431		 0.00019264	
Mg		-0.95743106		11.59478245		7.77632436		 0.00013987		 0.00006431		-0.00019264	
Mg		0.07414454		9.55071760		2.94064252		 0.00013987		-0.00006431		-0.00019264	
Mg		8.45070154		4.54628173		7.15424075		-0.00013987		 0.00006431		 0.00019264	
O		3.89557176		1.06009387		6.68702662		 0.00030274		 0.00020208		 0.00023800	
O		4.62927643		13.03690545		3.40785559		-0.00030274		-0.00020208		-0.00023800	
O		3.59769871		8.10859460		8.24353849		-0.00030274		 0.00020208		-0.00023800	
O		4.92714948		5.98840579		1.85134584		 0.00030274		-0.00020208		 0.00023800	
O		5.90293892		1.22502894		4.73558655		 0.00039732		 0.00020658		-0.00016397	
O		2.62190821		12.87197144		5.35929672		-0.00039732		-0.00020658		 0.00016397	
O		3.65348487		8.27352861		0.52361488		-0.00039732		 0.00020658		 0.00016397	
O		4.87136332		5.82347072		9.57126945		 0.00039732		-0.00020658		-0.00016397	
O		7.11116081		3.38328026		5.86952402		-0.00030668		 0.00015744		-0.00008735	
O		1.41368738		10.71372012		4.22536030		 0.00030668		-0.00015744		 0.00008735	
O		0.38210966		10.43177992		9.06104214		 0.00030668		 0.00015744		 0.00008735	
O		8.14273747		3.66522046		1.03384219		-0.00030668		-0.00015744		-0.00008735	
O		6.78657195		1.20952313		7.38107296		-0.00028865		-0.00006569		-0.00025459	
O		1.73827518		12.88747831		2.71381031		 0.00028865		 0.00006569		 0.00025459	
O		0.70669852		8.25802280		7.54949215		 0.00028865		-0.00006569		 0.00025459	
O		7.81814755		5.83897759		2.54539112		-0.00028865		 0.00006569		-0.00025459	
O		1.40190411		3.41852305		4.20050417		-0.00027419		 0.00010987		-0.00046206	
O		7.12294302		10.67847733		5.89438016		 0.00027419		-0.00010987		 0.00046206	
O		8.15451969		10.46702271		1.05869832		 0.00027419		 0.00010987		 0.00046206	
O		0.37032851		3.62997661		9.03618601		-0.00027419		-0.00010987		-0.00046206	
O		2.88349048		1.23348704		3.86278417		-0.00018160		 0.00012724		-0.00008396	
O		5.64135666		12.86351334		6.23210016		 0.00018160		-0.00012724		 0.00008396	
O		6.67293332		8.28198671		1.39641832		 0.00018160		 0.00012724		 0.00008396	
O		1.85191381		5.81501156		8.69846601		-0.00018160		-0.00012724		-0.00008396	
O		1.02778631		1.22784866		5.71397425		-0.00001353		-0.00017572		-0.00003470	
O		7.49706189		12.86915066		4.38091008		 0.00001353		 0.00017572		 0.00003470	
O		6.46548628		8.27634939		9.21659192		 0.00001353		-0.00017572		 0.00003470	
O		2.05936191		5.82065100		0.87829241		-0.00001353		 0.00017572		-0.00003470	
O		0.19916696		1.24194620		3.10092468		 0.00032512		 0.00002493		-0.00011866	
O		8.32568018		12.85505418		6.99395859		-0.00032512		-0.00002493		 0.00011866	
O		9.35725684		8.29044587		2.15827675		-0.00032512		 0.00002493		 0.00011866	
O		-0.83240865		5.80655452		7.93660652		 0.00032512		-0.00002493		-0.00011866	
O		4.19032732		3.40160579		5.33034717		 0.00010444		 0.00017022		 0.00011635	
O		4.33452087		10.69539353		4.76453716		-0.00010444		-0.00017022		-0.00011635	
O		3.30294421		10.45010651		9.60021900		-0.00010444		 0.00017022		-0.00011635	
O		5.22190293		3.64689387		0.49466533		 0.00010444		-0.00017022		 0.00011635	
O		4.95950897		3.36354434		7.80153653		-0.00029281		-0.00031202		 0.00017269	
O		3.56533922		10.73345604		2.29334568		 0.00029281		 0.00031202		-0.00017269	
O		2.53376150		10.41204506		7.12902751		 0.00029281		-0.00031202		-0.00017269	
O		5.99108458		3.68495638		2.96585576		-0.00029281		 0.00031202		 0.00017269	
O		4.94104887		1.19965464		1.87628569		 0.00000103		 0.00004652		-0.00008752	
O		3.58379933		12.89734468		8.21859652		-0.00000103		-0.00004652		 0.00008752	
O		4.61537493		8.24815537		3.38291468		-0.00000103		 0.00004652		 0.00008752	
O		3.90947220		5.84884502		6.71196753		 0.00000103		-0.00004652		-0.00008752	
O		5.05817374		1.04881711		9.66164883		 0.00016257		-0.00026314		 0.00005569	
O		3.46667340		13.04818327		0.43323444		-0.00016257		 0.00026314		-0.00005569	
O		2.43509674		8.09731678		5.26891627		-0.00016257		-0.00026314		-0.00005569	
O		6.08975146		5.99968255		4.82596700		 0.00016257		 0.00026314		 0.00005569	
O		7.94192383		1.06714264		2.45573018		 0.00000371		-0.00007295		-0.00006981	
O		0.58292437		13.02985668		7.63915415		-0.00000371		 0.00007295		 0.00006981	
O		1.61449997		8.11564337		2.80347232		-0.00000371		-0.00007295		 0.00006981	
O		6.91034716		5.98135702		7.29141095		 0.00000371		 0.00007295		-0.00006981	
O		-0.78216656		1.00652555		7.98641097		-0.00005416		-0.00005761		 0.00016798	
O		9.30701475		13.09047377		2.10847335		 0.00005416		 0.00005761		-0.00016798	
O		8.27543809		8.05502628		6.94415413		 0.00005416		-0.00005761		-0.00016798	
O		0.24940904		6.04197411		3.15072914		-0.00005416		 0.00005761		 0.00016798	
O		9.66434034		1.12212135		0.65870712		 0.00014278		 0.00010956		 0.00008368	
O		-1.13949320		12.97487903		9.43617721		-0.00014278		-0.00010956		-0.00008368	
O		-0.10791548		8.17062102		4.60049537		-0.00014278		 0.00010956		-0.00008368	
O		8.63276367		5.92637937		5.49438896		 0.00014278		-0.00010956		 0.00008368	
O		1.70344777		1.03471957		8.68862613		-0.00002391		-0.00030457		 0.00002648	
O		6.82140042		13.06227975		1.40625820		 0.00002391		 0.00030457		-0.00002648	
O		5.78982270		8.08322030		6.24193898		 0.00002391		-0.00030457		-0.00002648	
O		2.73502550		6.01378009		3.85294429		-0.00002391		 0.00030457		 0.00002648	
O		2.06408369		1.02767080		0.77606511		-0.00008374		-0.00005999		-0.00023176	
O		6.46076344		13.06932852		9.31881922		 0.00008374		 0.00005999		 0.00023176	
O		7.49233904		8.07617153		4.48313738		 0.00008374		-0.00005999		 0.00023176	
O		1.03250809		6.02082886		5.61174695		-0.00008374		 0.00005999		-0.00023176	
O		2.49219686		3.37200244		7.07859575		-0.00026290		 0.00028940		 0.00015958	
O		6.03265134		10.72499794		3.01628752		 0.00026290		-0.00028940		-0.00015958	
O		5.00107467		10.42050210		7.85196936		 0.00026290		 0.00028940		-0.00015958	
O		3.52377352		3.67649828		2.24291391		-0.00026290		-0.00028940		 0.00015958	
O		8.56164549		1.20106397		5.49739730		 0.00016235		 0.00023223		-0.00042430	
O		-0.03679729		12.89593641		4.59748703		-0.00016235		-0.00023223		 0.00042430	
O		-1.06837395		8.24956470		9.43316887		-0.00016235		 0.00023223		 0.00042430	
O		9.59322109		5.84743463		0.66171546		 0.00016235		-0.00023223		-0.00042430	
O		-0.59933194		3.49182729		6.18827953		 0.00009981		-0.00005499		-0.00015689	
O		9.12418013		10.60517415		3.90660374		-0.00009981		 0.00005499		 0.00015689	
O		8.09260347		10.54032695		8.74228558		-0.00009981		-0.00005499		 0.00015689	
O		0.43224367		3.55667343		1.35259663		 0.00009981		 0.00005499		-0.00015689	
O		9.00923813		3.49746567		3.90981023		-0.00018735		 0.00090613		-0.00020671	
O		-0.48438994		10.59953471		6.18507410		 0.00018735		-0.00090613		 0.00020671	
O		0.54718566		10.54596639		1.34939226		 0.00018735		 0.00090613		 0.00020671	
O		7.97766147		3.55103505		8.74549207		-0.00018735		-0.00090613		-0.00020671	
H		-0.97319225		2.72072133		5.81340619		 0.00000353		-0.00011206		-0.00028692	
H		9.49803938		11.37627906		4.28147707		-0.00000353		 0.00011206		 0.00028692	
H		8.46646272		9.76922099		9.11715891		-0.00000353		-0.00011206		 0.00028692	
H		0.05838547		4.32777940		0.97772542		 0.00000353		 0.00011206		-0.00028692	
H		8.86151173		2.87578790		4.41207853		-0.00076638		-0.00032877		 0.00032379	
H		-0.33666459		11.22121248		5.68280474		 0.00076638		 0.00032877		-0.00032379	
H		0.69491101		9.92428757		0.84712290		 0.00076638		-0.00032877		-0.00032379	
H		7.82993612		4.17271176		9.24776037		-0.00076638		 0.00032877		 0.00032379	
