# total energy = -117575.840498 eV	

CRYSTAL	
PRIMVEC	
		10.58800155		0.00000000		1.27055763	
		0.00000000		14.09699922		0.00000000	
		-1.28159483		0.00000000		9.47504660	
PRIMCOORD
   156 1	
Si		8.27023123		0.01395593		1.70640544		 0.00004971		-0.00009464		 0.00046334	
Si		1.03617763		14.08304330		9.03920199		-0.00004971		 0.00009464		-0.00046334	
Si		1.67697291		7.06245554		4.30167762		-0.00004971		-0.00009464		-0.00046334	
Si		7.62943595		7.03454369		6.44393087		 0.00004971		 0.00009464		 0.00046334	
Si		4.40459444		2.67335477		7.01434508		 0.00028590		 0.00005436		-0.00018436	
Si		4.90181548		11.42364446		3.73126341		-0.00028590		-0.00005436		 0.00018436	
Si		4.26102020		9.72185438		8.46878778		-0.00028590		 0.00005436		 0.00018436	
Si		5.04538865		4.37514485		2.27682071		 0.00028590		-0.00005436		-0.00018436	
Si		1.71213732		1.76917245		4.31456395		 0.00014015		-0.00003234		-0.00019214	
Si		7.59427154		12.32782678		6.43104454		-0.00014015		 0.00003234		 0.00019214	
Si		8.23506788		8.81767313		1.69352124		-0.00014015		-0.00003234		 0.00019214	
Si		1.07134097		5.27932716		9.05208832		 0.00014015		 0.00003234		-0.00019214	
Si		7.53699434		1.73858288		6.42176476		-0.00017151		 0.00007668		-0.00003494	
Si		1.76941452		12.35841635		4.32384373		 0.00017151		-0.00007668		 0.00003494	
Si		1.12861924		8.78708249		9.06136916		 0.00017151		 0.00007668		 0.00003494	
Si		8.17778962		5.30991674		1.68424040		-0.00017151		-0.00007668		-0.00003494	
Mg		4.65320443		0.00000000		5.37280425		-0.00000000		0.00000000		0.00000000	
Mg		5.29399971		7.04849961		0.63527988		0.00000000		0.00000000		-0.00000000	
Mg		4.81353708		2.46006808		4.00924728		-0.00029826		-0.00037138		-0.00040191	
Mg		4.49287177		11.63693327		6.73636228		 0.00029826		 0.00037138		 0.00040191	
Mg		5.13366812		9.50856770		1.99883791		 0.00029826		-0.00037138		 0.00040191	
Mg		4.17274073		4.58843260		8.74677058		-0.00029826		 0.00037138		-0.00040191	
Mg		5.29399971		0.00000000		0.63527988		0.00000000		0.00000000		-0.00000000	
Mg		4.65320443		7.04849961		5.37280425		-0.00000000		0.00000000		0.00000000	
Mg		6.53531355		0.03510149		3.60683632		 0.00060613		 0.00019961		-0.00010152	
Mg		2.77109530		14.06189880		7.13877324		-0.00060613		-0.00019961		 0.00010152	
Mg		3.41189058		7.08360111		2.40124887		-0.00060613		 0.00019961		 0.00010152	
Mg		5.89451827		7.01339812		8.34435962		 0.00060613		-0.00019961		-0.00010152	
Mg		0.60037354		0.00493421		1.53948033		 0.00007694		 0.00017642		-0.00083470	
Mg		8.70603532		14.09206608		9.20612923		-0.00007694		-0.00017642		 0.00083470	
Mg		9.34683060		7.05343383		4.46860380		-0.00007694		 0.00017642		 0.00083470	
Mg		-0.04042174		7.04356540		6.27700469		 0.00007694		-0.00017642		-0.00083470	
Mg		-0.12427887		0.00493421		6.09670377		-0.00019815		-0.00008336		 0.00042791	
Mg		9.43068772		14.09206608		4.64890472		 0.00019815		 0.00008336		-0.00042791	
Mg		8.78989138		7.05343383		9.38642909		 0.00019815		-0.00008336		-0.00042791	
Mg		0.51651748		7.04356540		1.35918047		-0.00019815		 0.00008336		 0.00042791	
Mg		3.44662204		0.03904929		2.48812816		-0.00067702		-0.00008747		-0.00036837	
Mg		5.85978682		14.05795100		8.25748140		 0.00067702		 0.00008747		 0.00036837	
Mg		6.50058317		7.08754890		3.51995596		 0.00067702		-0.00008747		 0.00036837	
Mg		2.80582569		7.00945139		7.22565146		-0.00067702		 0.00008747		-0.00036837	
Mg		6.71605276		2.39564390		1.99614739		-0.00041071		-0.00002578		-0.00012103	
Mg		2.59035609		11.70135533		8.74946110		 0.00041071		 0.00002578		 0.00012103	
Mg		3.23115137		9.44414351		4.01193673		 0.00041071		-0.00002578		 0.00012103	
Mg		6.07525748		4.65285572		6.73367176		-0.00041071		 0.00002578		-0.00012103	
Mg		-0.50108246		2.43920404		9.27705204		 0.00069648		 0.00010959		 0.00025762	
Mg		9.80749132		11.65779625		1.46855646		-0.00069648		-0.00010959		-0.00025762	
Mg		9.16669604		9.48770366		6.20608082		-0.00069648		 0.00010959		-0.00025762	
Mg		0.13971282		4.60929557		4.53952767		 0.00069648		-0.00010959		 0.00025762	
Mg		1.35050108		2.49798806		7.40265935		-0.00031609		-0.00015442		 0.00019897	
Mg		7.95590778		11.59901116		3.34295021		 0.00031609		 0.00015442		-0.00019897	
Mg		7.31511143		9.54648874		8.08047457		 0.00031609		-0.00015442		-0.00019897	
Mg		1.99129742		4.55051048		2.66513392		-0.00031609		 0.00015442		 0.00019897	
Mg		7.05313737		2.48008540		9.46283956		-0.00019749		-0.00024641		-0.00081977	
Mg		2.25327149		11.61691489		1.28276786		 0.00019749		 0.00024641		 0.00081977	
Mg		1.61247514		9.52858608		6.02029329		 0.00019749		-0.00024641		 0.00081977	
Mg		7.69393372		4.56841527		4.72531626		-0.00019749		 0.00024641		-0.00081977	
Mg		3.65816516		2.37633146		0.87323977		 0.00059011		 0.00000017		-0.00038341	
Mg		5.64824369		11.72066883		9.87236872		-0.00059011		-0.00000017		 0.00038341	
Mg		6.28904004		9.42483108		5.13484436		-0.00059011		 0.00000017		 0.00038341	
Mg		3.01736882		4.67216922		5.61076520		 0.00059011		-0.00000017		-0.00038341	
Mg		9.63766881		2.50221739		3.07092643		 0.00032690		 0.00020068		-0.00045029	
Mg		-0.33125995		11.59478184		7.67468313		-0.00032690		-0.00020068		 0.00045029	
Mg		0.30953640		9.55071807		2.93715770		-0.00032690		 0.00020068		 0.00045029	
Mg		8.99687246		4.54628222		7.80845079		 0.00032690		-0.00020068		-0.00045029	
O		4.41890548		1.06009369		6.97773997		 0.00039401		-0.00023511		-0.00032721	
O		4.88750445		13.03690446		3.76786853		-0.00039401		 0.00023511		 0.00032721	
O		4.24670810		8.10859437		8.50539289		-0.00039401		-0.00023511		 0.00032721	
O		5.05970076		5.98840592		2.24021453		 0.00039401		 0.00023511		-0.00032721	
O		6.26347426		1.22502891		5.19340017		 0.00034774		-0.00025488		 0.00022113	
O		3.04293460		12.87197031		5.55220833		-0.00034774		 0.00025488		-0.00022113	
O		3.68373094		8.27352852		0.81468396		-0.00034774		-0.00025488		-0.00022113	
O		5.62267791		5.82347070		9.93092453		 0.00034774		 0.00025488		 0.00022113	
O		7.55868270		3.38328024		6.42051601		 0.00017079		 0.00017477		 0.00040061	
O		1.74772616		10.71372005		4.32509248		-0.00017079		-0.00017477		-0.00040061	
O		1.10692981		10.43177985		9.06261791		-0.00017079		 0.00017477		-0.00040061	
O		8.19947905		3.66522044		1.68299058		 0.00017079		-0.00017477		 0.00040061	
O		7.35625193		1.20952351		7.90121232		 0.00035431		-0.00031199		-0.00003584	
O		1.95015693		12.88747784		2.84439724		-0.00035431		 0.00031199		 0.00003584	
O		1.30936058		8.25802312		7.58192160		-0.00035431		-0.00031199		 0.00003584	
O		7.99704827		5.83897823		3.16368689		 0.00035431		 0.00031199		-0.00003584	
O		1.73398991		3.41852250		4.29937314		 0.00039038		 0.00016233		 0.00038946	
O		7.57241895		10.67847673		6.44623642		-0.00039038		-0.00016233		-0.00038946	
O		8.21321529		10.46702318		1.70871206		-0.00039038		 0.00016233		-0.00038946	
O		1.09319356		3.62997711		9.03689644		 0.00039038		-0.00016233		 0.00038946	
O		3.18376606		1.23348650		4.08145190		 0.00008072		 0.00009674		-0.00000096	
O		6.12264173		12.86351273		6.66415660		-0.00008072		-0.00009674		 0.00000096	
O		6.76343807		8.28198718		1.92663223		-0.00008072		 0.00009674		 0.00000096	
O		2.54297078		5.81501205		8.81897626		 0.00008072		-0.00009674		-0.00000096	
O		1.48234176		1.22784846		5.77801343		-0.00000257		 0.00048810		-0.00020401	
O		7.82406710		12.86915076		4.96759506		 0.00000257		-0.00048810		 0.00020401	
O		7.18327182		8.27634914		9.70511836		 0.00000257		 0.00048810		 0.00020401	
O		2.12313704		5.82065115		1.04049013		-0.00000257		-0.00048810		-0.00020401	
O		0.44700018		1.24194622		3.10694502		-0.00030977		-0.00010495		 0.00009486	
O		8.85940867		12.85505407		7.63866347		 0.00030977		 0.00010495		-0.00009486	
O		9.50020395		8.29044583		2.90113911		 0.00030977		-0.00010495		-0.00009486	
O		-0.19379510		5.80655339		7.84446939		-0.00030977		 0.00010495		 0.00009486	
O		4.60400731		3.40160626		5.64902536		 0.00028372		-0.00006210		-0.00023867	
O		4.70240155		10.69539403		5.09658313		-0.00028372		 0.00006210		 0.00023867	
O		4.06160626		10.45010587		9.83410750		-0.00028372		-0.00006210		 0.00023867	
O		5.24480259		3.64689442		0.91150100		 0.00028372		 0.00006210		-0.00023867	
O		5.56873640		3.36354445		8.17392926		 0.00010433		 0.00020523		-0.00014327	
O		3.73767246		10.73345584		2.57168030		-0.00010433		-0.00020523		 0.00014327	
O		3.09687718		10.41204513		7.30920360		-0.00010433		 0.00020523		 0.00014327	
O		6.20953168		3.68495623		3.43640489		 0.00010433		-0.00020523		-0.00014327	
O		5.07555593		1.19965508		2.26618981		 0.00000256		-0.00021893		-0.00009430	
O		4.23085292		12.89734521		8.47941868		-0.00000256		 0.00021893		 0.00009430	
O		4.87164927		8.24815470		3.74189432		-0.00000256		-0.00021893		 0.00009430	
O		4.43475959		5.84884453		7.00371418		 0.00000256		 0.00021893		-0.00009430	
O		5.81613283		1.04881655		10.03598481		 0.00031515		 0.00004632		 0.00041450	
O		3.49027603		13.04818267		0.70962368		-0.00031515		-0.00004632		-0.00041450	
O		2.84948075		8.09731723		5.44714912		-0.00031515		 0.00004632		-0.00041450	
O		6.45692811		5.99968306		5.29846044		 0.00031515		-0.00004632		 0.00041450	
O		8.11324173		1.06714257		3.08423078		-0.00016042		-0.00003641		-0.00007427	
O		1.19316713		13.02985665		7.66137771		 0.00016042		 0.00003641		 0.00007427	
O		1.83396348		8.11564325		2.92385441		 0.00016042		-0.00003641		 0.00007427	
O		7.47244538		5.98135704		7.82175515		-0.00016042		 0.00003641		-0.00007427	
O		-0.13972348		1.00652648		7.89814004		 0.00035957		-0.00018854		-0.00059682	
O		9.44613234		13.09047381		2.84746846		-0.00035957		 0.00018854		 0.00059682	
O		8.80533706		8.05502610		7.58499389		-0.00035957		-0.00018854		 0.00059682	
O		0.50107180		6.04197419		3.16061460		 0.00035957		 0.00018854		-0.00059682	
O		9.68614611		1.12212062		1.43098199		 0.00051564		-0.00027104		 0.00042531	
O		-0.37973725		12.97487860		9.31462650		-0.00051564		 0.00027104		-0.00042531	
O		0.26105910		8.17062130		4.57710214		-0.00051564		-0.00027104		-0.00042531	
O		9.04534976		5.92637899		6.16850636		 0.00051564		 0.00027104		 0.00042531	
O		2.39419146		1.03471986		8.79727190		 0.00045583		 0.00006509		 0.00014065	
O		6.91221739		13.06227936		1.94833659		-0.00045583		-0.00006509		-0.00014065	
O		6.27142104		8.08321948		6.68586096		-0.00045583		 0.00006509		-0.00014065	
O		3.03498781		6.01377975		4.05974754		 0.00045583		-0.00006509		 0.00014065	
O		2.11965312		1.02767099		0.93896923		 0.00004876		-0.00023965		 0.00009620	
O		7.18675573		13.06932930		9.80664033		-0.00004876		 0.00023965		-0.00009620	
O		7.82755101		8.07617060		5.06911597		-0.00004876		-0.00023965		-0.00009620	
O		1.47885784		6.02082863		5.67649253		 0.00004876		 0.00023965		 0.00009620	
O		3.05140391		3.37200204		7.25560333		 0.00041299		-0.00006785		 0.00019244	
O		6.25500494		10.72499826		3.49000623		-0.00041299		 0.00006785		-0.00019244	
O		5.61420966		10.42050165		8.22752953		-0.00041299		-0.00006785		-0.00019244	
O		3.69220026		3.67649758		2.51807896		 0.00041299		 0.00006785		 0.00019244	
O		8.97469995		1.20106379		6.16580624		-0.00006328		 0.00009791		 0.00001921	
O		0.33170890		12.89593543		4.57980332		 0.00006328		-0.00009791		-0.00001921	
O		-0.30908744		8.24956447		9.31732662		 0.00006328		 0.00009791		-0.00001921	
O		9.61549630		5.84743475		1.42828187		-0.00006328		-0.00009791		 0.00001921	
O		-0.10155503		3.49182657		6.12042042		 0.00006504		 0.00028938		-0.00024924	
O		9.40796495		10.60517372		4.62518700		-0.00006504		-0.00028938		 0.00024924	
O		8.76716861		10.54032724		9.36271137		-0.00006504		 0.00028938		 0.00024924	
O		0.53924025		3.55667305		1.38289712		 0.00006504		-0.00028938		-0.00024924	
O		9.29364836		3.49746567		4.61917253		 0.00048812		-0.00006747		-0.00000647	
O		0.01276050		10.59953462		6.12643596		-0.00048812		 0.00006747		 0.00000647	
O		0.65355684		10.54596635		1.38891160		-0.00048812		-0.00006747		 0.00000647	
O		8.65285201		3.55103501		9.35669690		 0.00048812		 0.00006747		-0.00000647	
H		-0.50425499		2.72072088		5.71679270		-0.00016829		 0.00027767		 0.00025434	
H		9.81066385		11.37627834		5.02881473		 0.00016829		-0.00027767		-0.00025434	
H		9.16986750		9.76922049		9.76634016		 0.00016829		 0.00027767		-0.00025434	
H		0.13654136		4.32777873		0.97926940		-0.00016829		-0.00027767		 0.00025434	
H		9.18664191		2.87578767		5.10799357		 0.00032035		 0.00003484		-0.00012355	
H		0.11976695		11.22121155		5.63761386		-0.00032035		-0.00003484		 0.00012355	
H		0.76056329		9.92428835		0.90008949		-0.00032035		 0.00003484		 0.00012355	
H		8.54584663		4.17271194		9.84551900		 0.00032035		-0.00003484		-0.00012355	
