# total energy = -117580.184328 eV	

CRYSTAL	
PRIMVEC	
		10.58800155		0.00000000		-1.27055763	
		0.00000000		14.09699922		0.00000000	
		-3.62627992		0.00000000		10.06399584	
PRIMCOORD
   156 1	
Si		8.09637241		0.01395593		-0.25758584		 0.00010208		-0.00034847		-0.00001460	
Si		-1.13464864		14.08304330		9.05101872		-0.00010208		 0.00034847		 0.00001460	
Si		0.67848918		7.06245554		4.01902294		-0.00010208		-0.00034847		 0.00001460	
Si		6.28323458		7.03454369		4.77440994		 0.00010208		 0.00034847		-0.00001460	
Si		2.82526076		2.67335477		6.14676147		 0.00003636		-0.00008044		-0.00015299	
Si		4.13646407		11.42364446		2.64667034		-0.00003636		 0.00008044		 0.00015299	
Si		2.32332518		9.72185438		7.67866719		-0.00003636		-0.00008044		 0.00015299	
Si		4.63839858		4.37514485		1.11476569		 0.00003636		 0.00008044		-0.00015299	
Si		0.71154213		1.76917245		4.02372148		 0.00034009		 0.00043129		 0.00009039	
Si		6.25018163		12.32782678		4.76971140		-0.00034009		-0.00043129		-0.00009039	
Si		8.06331946		8.81767313		-0.26228652		-0.00034009		 0.00043129		-0.00009039	
Si		-1.10159570		5.27932716		9.05571833		 0.00034009		-0.00043129		 0.00009039	
Si		6.19348882		1.73858288		4.77410708		-0.00015652		-0.00050495		-0.00014113	
Si		0.76823495		12.35841635		4.01932579		 0.00015652		 0.00050495		 0.00014113	
Si		-1.04490288		8.78708249		9.05132264		 0.00015652		-0.00050495		 0.00014113	
Si		8.00662771		5.30991674		-0.25788977		-0.00015652		 0.00050495		-0.00014113	
Mg		3.48086188		0.00000000		4.39671591		-0.00000000		0.00000000		-0.00000000	
Mg		5.29399971		7.04849961		-0.63527988		0.00000000		0.00000000		0.00000000	
Mg		3.97791443		2.46006808		2.95427229		-0.00008935		 0.00004944		-0.00024143	
Mg		2.98381040		11.63693327		5.83915952		 0.00008935		-0.00004944		 0.00024143	
Mg		4.79694822		9.50856770		0.80716373		 0.00008935		 0.00004944		 0.00024143	
Mg		2.16477554		4.58843260		7.98626914		-0.00008935		-0.00004944		-0.00024143	
Mg		5.29399971		0.00000000		-0.63527988		0.00000000		0.00000000		0.00000000	
Mg		3.48086188		7.04849961		4.39671591		-0.00000000		0.00000000		-0.00000000	
Mg		5.84799248		0.03510149		2.12083895		-0.00004829		-0.00058191		 0.00030363	
Mg		1.11373128		14.06189880		6.67259392		 0.00004829		 0.00058191		-0.00030363	
Mg		2.92686911		7.08360111		1.64059814		 0.00004829		-0.00058191		-0.00030363	
Mg		4.03485465		7.01339812		7.15283474		-0.00004829		 0.00058191		 0.00030363	
Mg		0.24304447		0.00493421		1.43826974		-0.00039952		-0.00029621		-0.00021296	
Mg		6.71868036		14.09206608		7.35516314		 0.00039952		 0.00029621		 0.00021296	
Mg		8.53181819		7.05343383		2.32316629		 0.00039952		-0.00029621		 0.00021296	
Mg		-1.57009443		7.04356540		6.47026659		-0.00039952		 0.00029621		-0.00021296	
Mg		-1.61249647		0.00493421		6.30511703		-0.00017558		-0.00023878		-0.00000460	
Mg		8.57422130		14.09206608		2.48831585		 0.00017558		 0.00023878		 0.00000460	
Mg		6.76108240		7.05343383		7.52031163		 0.00017558		-0.00023878		 0.00000460	
Mg		0.20064136		7.04356540		1.27312124		-0.00017558		 0.00023878		-0.00000460	
Mg		2.94145954		0.03904929		1.72155786		 0.00012659		-0.00003744		-0.00009206	
Mg		4.02026422		14.05795100		7.07187501		-0.00012659		 0.00003744		 0.00009206	
Mg		5.83340311		7.08754890		2.03987816		-0.00012659		-0.00003744		 0.00009206	
Mg		1.12832172		7.00945139		6.75355471		 0.00012659		 0.00003744		-0.00009206	
Mg		6.42622657		2.39564390		0.41907447		-0.00008690		 0.00011456		-0.00022662	
Mg		0.53549720		11.70135533		8.37435841		 0.00008690		-0.00011456		 0.00022662	
Mg		2.34863502		9.44414351		3.34236262		 0.00008690		 0.00011456		 0.00022662	
Mg		4.61308874		4.65285572		5.45107026		-0.00008690		-0.00011456		-0.00022662	
Mg		-2.77474664		2.43920404		9.67015230		-0.00005494		-0.00022238		-0.00035428	
Mg		9.73647040		11.65779625		-0.87671942		 0.00005494		 0.00022238		 0.00035428	
Mg		7.92333258		9.48770366		4.15527743		 0.00005494		-0.00022238		 0.00035428	
Mg		-0.96160881		4.60929557		4.63815545		-0.00005494		 0.00022238		-0.00035428	
Mg		-0.41263237		2.49798806		7.29011404		 0.00051103		 0.00056706		-0.00012703	
Mg		7.37435613		11.59901116		1.50331777		-0.00051103		-0.00056706		 0.00012703	
Mg		5.56121831		9.54648874		6.53531462		-0.00051103		 0.00056706		 0.00012703	
Mg		1.40050546		4.55051048		2.25811826		 0.00051103		-0.00056706		-0.00012703	
Mg		4.95497319		2.48008540		8.02186651		-0.00004365		 0.00012045		-0.00036269	
Mg		2.00675057		11.61691489		0.77156637		 0.00004365		-0.00012045		 0.00036269	
Mg		0.19361274		9.52858608		5.80356215		 0.00004365		 0.00012045		 0.00036269	
Mg		6.76811102		4.56841527		2.98987073		-0.00004365		-0.00012045		-0.00036269	
Mg		3.55241919		2.37633146		0.00797024		 0.00019088		-0.00027089		-0.00029586	
Mg		3.40930350		11.72066883		8.78546263		-0.00019088		 0.00027089		 0.00029586	
Mg		5.22244240		9.42483108		3.75346578		-0.00019088		-0.00027089		 0.00029586	
Mg		1.73928137		4.67216922		5.03996710		 0.00019088		 0.00027089		-0.00029586	
Mg		9.17149909		2.50221739		0.81382551		 0.00016172		-0.00020814		-0.00043037	
Mg		-2.20977426		11.59478184		7.97960737		-0.00016172		 0.00020814		 0.00043037	
Mg		-0.39663643		9.55071807		2.94760945		-0.00016172		-0.00020814		 0.00043037	
Mg		7.35836019		4.54628222		5.84582236		 0.00016172		 0.00020814		-0.00043037	
O		2.84890489		1.06009369		6.10560285		 0.00027318		-0.00004453		 0.00012107	
O		4.11281994		13.03690446		2.68783003		-0.00027318		 0.00004453		-0.00012107	
O		2.29968104		8.10859437		7.71982688		-0.00027318		-0.00004453		-0.00012107	
O		4.66204272		5.98840592		1.07360600		 0.00027318		 0.00004453		 0.00012107	
O		5.18187029		1.22502891		3.81995878		-0.00002420		-0.00026117		-0.00055874	
O		1.77985347		12.87197031		4.97347303		 0.00002420		 0.00026117		 0.00055874	
O		3.59299236		8.27352852		-0.05852275		 0.00002420		-0.00026117		 0.00055874	
O		3.36873246		5.82347070		8.85195563		-0.00002420		 0.00026117		-0.00055874	
O		6.21611561		3.38328024		4.76754022		 0.00015212		-0.00051944		-0.00000431	
O		0.74560815		10.71372005		4.02589266		-0.00015212		 0.00051944		 0.00000431	
O		-1.06752967		10.43177985		9.05788951		-0.00015212		-0.00051944		 0.00000431	
O		8.02925344		3.66522044		-0.26445663		 0.00015212		 0.00051944		-0.00000431	
O		5.64721142		1.20952351		6.34079544		 0.00016894		-0.00003819		 0.00022128	
O		1.31451341		12.88747784		2.45263744		-0.00016894		 0.00003819		-0.00022128	
O		-0.49862549		8.25802312		7.48463322		-0.00016894		-0.00003819		-0.00022128	
O		7.46034925		5.83897823		1.30879966		 0.00016894		 0.00003819		 0.00022128	
O		0.73773282		3.41852250		4.00276573		-0.00026237		 0.00026987		-0.00029938	
O		6.22399094		10.67847673		4.79066715		 0.00026237		-0.00026987		 0.00029938	
O		8.03712877		10.46702318		-0.24132970		 0.00026237		 0.00026987		 0.00029938	
O		-1.07540501		3.62997711		9.03476151		-0.00026237		-0.00026987		-0.00029938	
O		2.28293756		1.23348650		3.42544767		 0.00018047		 0.00017101		-0.00007063	
O		4.67878514		12.86351273		5.36798627		-0.00018047		-0.00017101		 0.00007063	
O		6.49192296		8.28198718		0.33598942		-0.00018047		 0.00017101		 0.00007063	
O		0.46979973		5.81501205		8.45744346		 0.00018047		-0.00017101		-0.00007063	
O		0.11867282		1.22784846		5.58589258		 0.00060530		 0.00020570		-0.00008071	
O		6.84305094		12.86915076		3.20754030		-0.00060530		-0.00020570		 0.00008071	
O		5.02991311		8.27634914		8.23953715		-0.00060530		 0.00020570		 0.00008071	
O		1.93181065		5.82065115		0.55389573		 0.00060530		-0.00020570		-0.00008071	
O		-0.29649864		1.24194622		3.08888454		-0.00002031		 0.00040807		 0.00031017	
O		7.25822240		12.85505407		5.70454834		 0.00002031		-0.00040807		-0.00031017	
O		9.07136129		8.29044583		0.67255149		 0.00002031		 0.00040807		-0.00031017	
O		-2.10963646		5.80655339		8.12088139		-0.00002031		-0.00040807		 0.00031017	
O		3.36296539		3.40160626		4.69298847		 0.00021327		-0.00035281		-0.00021038	
O		3.59875943		10.69539403		4.10044441		-0.00021327		 0.00035281		 0.00021038	
O		1.78562054		10.45010587		9.13244126		-0.00021327		-0.00035281		 0.00021038	
O		5.17610429		3.64689442		-0.33900838		 0.00021327		 0.00035281		-0.00021038	
O		3.74105400		3.36354445		7.05675352		-0.00005865		-0.00017663		-0.00038760	
O		3.22066977		10.73345584		1.73667936		 0.00005865		 0.00017663		 0.00038760	
O		1.40753194		10.41204513		6.76867514		 0.00005865		-0.00017663		 0.00038760	
O		5.55419182		3.68495623		2.02475773		-0.00005865		 0.00017663		-0.00038760	
O		4.67203485		1.19965508		1.09647913		 0.00010508		 0.00023509		 0.00016939	
O		2.28968891		12.89734521		7.69695375		-0.00010508		-0.00023509		-0.00016939	
O		4.10282674		8.24815470		2.66495690		-0.00010508		 0.00023509		-0.00016939	
O		2.85889702		5.84884453		6.12847598		 0.00010508		-0.00023509		 0.00016939	
O		3.54225644		1.04881655		8.91297801		-0.00022291		-0.00031763		-0.00027475	
O		3.41946733		13.04818267		-0.11954513		 0.00022291		 0.00031763		 0.00027475	
O		1.60632950		8.09731723		4.91245065		 0.00022291		-0.00031763		 0.00027475	
O		5.35539533		5.99968306		3.88098116		-0.00022291		 0.00031763		-0.00027475	
O		7.59928680		1.06714257		1.19872732		-0.00016031		 0.00006669		-0.00034691	
O		-0.63756303		13.02985665		7.59470449		 0.00016031		-0.00006669		 0.00034691	
O		1.17557479		8.11564325		2.56270871		 0.00016031		 0.00006669		 0.00034691	
O		5.78614897		5.98135704		6.23072417		-0.00016031		-0.00006669		-0.00034691	
O		-2.06705527		1.00652648		8.16295285		-0.00008879		 0.00046597		-0.00005267	
O		9.02877903		13.09047381		0.63048003		 0.00008879		-0.00046597		 0.00005267	
O		7.21564120		8.05502610		5.66247582		 0.00008879		 0.00046597		 0.00005267	
O		-0.25391744		6.04197419		3.13095706		-0.00008879		-0.00046597		-0.00005267	
O		9.62072910		1.12212062		-0.88584351		 0.00045803		-0.00003063		-0.00041341	
O		-2.65900534		12.97487860		9.67927532		-0.00045803		 0.00003063		 0.00041341	
O		-0.84586751		8.17062130		4.64727846		-0.00045803		-0.00003063		 0.00041341	
O		7.80759128		5.92637899		4.14615335		 0.00045803		 0.00003063		-0.00041341	
O		0.32195991		1.03471986		8.47133434		-0.00083028		 0.00035063		-0.00043509	
O		6.63976492		13.06227936		0.32209854		 0.00083028		-0.00035063		 0.00043509	
O		4.82662603		8.08321948		5.35409539		 0.00083028		 0.00035063		 0.00043509	
O		2.13509774		6.01377975		3.43933642		-0.00083028		-0.00035063		-0.00043509	
O		1.95294555		1.02767099		0.45025696		-0.00004073		-0.00056061		-0.00018989	
O		5.00877821		13.06932930		8.34317592		 0.00004073		 0.00056061		 0.00018989	
O		6.82191604		8.07617060		3.31118013		 0.00004073		-0.00056061		 0.00018989	
O		0.13980773		6.02082863		5.48225274		-0.00004073		 0.00056061		-0.00018989	
O		1.37378157		3.37200204		6.72458073		 0.00023789		 0.00007418		 0.00018639	
O		5.58794326		10.72499826		2.06885215		-0.00023789		-0.00007418		-0.00018639	
O		3.77480437		10.42050165		7.10084793		-0.00023789		 0.00007418		-0.00018639	
O		3.18692046		3.67649758		1.69258495		 0.00023789		-0.00007418		 0.00018639	
O		7.73553383		1.20106379		4.16057742		 0.00011023		 0.00011507		-0.00007226	
O		-0.77381006		12.89593543		4.63285439		-0.00011023		-0.00011507		 0.00007226	
O		-2.58694789		8.24956447		9.66485124		-0.00011023		 0.00011507		 0.00007226	
O		9.54867165		5.84743475		-0.87141943		 0.00011023		-0.00011507		-0.00007226	
O		-1.59488494		3.49182657		6.32399437		 0.00057950		-0.00053750		-0.00016416	
O		8.55660870		10.60517372		2.46943744		-0.00057950		 0.00053750		 0.00016416	
O		6.74347087		10.54032724		7.50143536		-0.00057950		-0.00053750		 0.00016416	
O		0.21825289		3.55667305		1.29199752		 0.00057950		 0.00053750		-0.00016416	
O		8.44041738		3.49746567		2.49108528		 0.00018523		 0.00041514		-0.00086505	
O		-1.47869255		10.59953462		6.30234760		-0.00018523		-0.00041514		 0.00086505	
O		0.33444528		10.54596635		1.27035181		-0.00018523		 0.00041514		 0.00086505	
O		6.62727849		3.55103501		7.52308107		 0.00018523		-0.00041514		-0.00086505	
H		-1.91106605		2.72072088		6.00663169		-0.00026977		-0.00010074		-0.00047236	
H		8.87278981		11.37627834		2.78680118		 0.00026977		 0.00010074		 0.00047236	
H		7.05965198		9.76922049		7.81879697		 0.00026977		-0.00010074		 0.00047236	
H		-0.09792822		4.32777873		0.97463591		-0.00026977		 0.00010074		-0.00047236	
H		8.21125312		2.87578767		3.02024702		-0.00039990		-0.00041740		 0.00013513	
H		-1.24952936		11.22121155		5.77318586		 0.00039990		 0.00041740		-0.00013513	
H		0.56360846		9.92428835		0.74118901		 0.00039990		-0.00041740		-0.00013513	
H		6.39811530		4.17271194		8.05224280		-0.00039990		 0.00041740		 0.00013513	
