# total energy = -117556.613977 eV	

CRYSTAL	
PRIMVEC	
		10.58800397		0.00000000		1.69408535	
		0.00000000		14.09699772		0.00000000	
		-0.89080725		0.00000000		9.37688911	
PRIMCOORD
   156 1	
Si		8.29920824		0.01395555		2.03373772		 0.00001351		 0.00007640		-0.00012775	
Si		1.39798204		14.08304431		9.03723353		-0.00001351		-0.00007640		 0.00012775	
Si		1.84338674		7.06245549		4.34878683		-0.00001351		 0.00007640		 0.00012775	
Si		7.85380354		7.03454438		6.72218442		 0.00001351		-0.00007640		-0.00012775	
Si		4.66781628		2.67335463		7.15894236		 0.00006128		-0.00044311		 0.00001482	
Si		5.02937399		11.42364523		3.91202889		-0.00006128		 0.00044311		-0.00001482	
Si		4.58396929		9.72185456		8.60047452		-0.00006128		-0.00044311		-0.00001482	
Si		5.11322098		4.37514530		2.47049566		 0.00006128		 0.00044311		 0.00001482	
Si		1.87890236		1.76917299		4.36303726		-0.00031558		-0.00002656		 0.00000389	
Si		7.81828684		12.32782687		6.70793399		 0.00031558		 0.00002656		-0.00000389	
Si		8.26369261		8.81767292		2.01948836		 0.00031558		-0.00002656		-0.00000389	
Si		1.43349659		5.27932694		9.05148289		-0.00031558		 0.00002656		 0.00000389	
Si		7.76091091		1.73858336		6.69637388		-0.00049541		-0.00004460		-0.00037321	
Si		1.93627937		12.35841650		4.37459737		 0.00049541		 0.00004460		 0.00037321	
Si		1.49087253		8.78708329		9.06304300		 0.00049541		-0.00004460		 0.00037321	
Si		8.20631668		5.30991657		2.00792932		-0.00049541		 0.00004460		-0.00037321	
Mg		4.84859514		0.00000000		5.53548616		0.00000000		-0.00000000		-0.00000000	
Mg		5.29399984		7.04849993		0.84704053		0.00000000		-0.00000000		0.00000000	
Mg		4.95280662		2.46006786		4.18507632		-0.00008837		-0.00040475		-0.00004338	
Mg		4.74438258		11.63693307		6.88589600		 0.00008837		 0.00040475		 0.00004338	
Mg		5.18978835		9.50856779		2.19745037		 0.00008837		-0.00040475		 0.00004338	
Mg		4.50740192		4.58843314		8.87352088		-0.00008837		 0.00040475		-0.00004338	
Mg		5.29399984		0.00000000		0.84704053		0.00000000		-0.00000000		0.00000000	
Mg		4.84859514		7.04849993		5.53548616		0.00000000		-0.00000000		-0.00000000	
Mg		6.64986752		0.03510173		3.85450177		 0.00010746		 0.00035824		-0.00039644	
Mg		3.04732276		14.06189920		7.21646948		-0.00010746		-0.00035824		 0.00039644	
Mg		3.49272853		7.08360059		2.52802385		-0.00010746		 0.00035824		 0.00039644	
Mg		6.20446175		7.01339820		8.54294847		 0.00010746		-0.00035824		-0.00039644	
Mg		0.65992887		0.00493350		1.55634837		 0.00003701		-0.00037517		 0.00021086	
Mg		9.03726141		14.09206636		9.51462288		-0.00003701		 0.00037517		-0.00021086	
Mg		9.48266611		7.05343450		4.82617725		-0.00003701		-0.00037517		-0.00021086	
Mg		0.21452310		7.04356643		6.24479400		 0.00003701		 0.00037517		 0.00021086	
Mg		0.12375784		0.00493350		6.06196818		 0.00031645		-0.00021612		-0.00003570	
Mg		9.57343244		14.09206636		5.00900307		-0.00031645		 0.00021612		 0.00003570	
Mg		9.12802667		7.05343450		9.69744869		-0.00031645		-0.00021612		 0.00003570	
Mg		0.56916254		7.04356643		1.37352256		 0.00031645		 0.00021612		-0.00003570	
Mg		3.53081653		0.03904875		2.61588970		 0.00037032		-0.00012256		-0.00010804	
Mg		6.16637375		14.05795111		8.45508155		-0.00037032		 0.00012256		 0.00010804	
Mg		6.61177952		7.08754868		3.76663592		-0.00037032		-0.00012256		 0.00010804	
Mg		3.08541076		7.00945118		7.30433533		 0.00037032		 0.00012256		-0.00010804	
Mg		6.76435775		2.39564391		2.25899314		-0.00034940		-0.00000374		-0.00027410	
Mg		2.93283252		11.70135595		8.81197811		 0.00034940		 0.00000374		 0.00027410	
Mg		3.37823722		9.44414384		4.12353248		 0.00034940		-0.00000374		 0.00027410	
Mg		6.31895305		4.65285602		6.94743877		-0.00034940		 0.00000374		-0.00027410	
Mg		-0.12213764		2.43920369		9.21153589		 0.00026480		 0.00017497		-0.00008197	
Mg		9.81932792		11.65779617		1.85943643		-0.00026480		-0.00017497		 0.00008197	
Mg		9.37392322		9.48770362		6.54788206		-0.00026480		 0.00017497		 0.00008197	
Mg		0.32326705		4.60929624		4.52309026		 0.00026480		-0.00017497		-0.00008197	
Mg		1.64435575		2.49798751		7.42141616		-0.00013085		-0.00022082		-0.00026538	
Mg		8.05283345		11.59901128		3.64955509		 0.00013085		 0.00022082		 0.00026538	
Mg		7.60742768		9.54648851		8.33800072		 0.00013085		-0.00022082		 0.00026538	
Mg		2.08976153		4.55051135		2.73297053		-0.00013085		 0.00022082		-0.00026538	
Mg		7.40283163		2.48008494		9.70300304		-0.00043362		 0.00042473		 0.00018240	
Mg		2.29435757		11.61691492		1.36796928		 0.00043362		-0.00042473		-0.00018240	
Mg		1.84895180		9.52858594		6.05641491		 0.00043362		 0.00042473		-0.00018240	
Mg		7.84823740		4.56841499		5.01455741		-0.00043362		-0.00042473		 0.00018240	
Mg		3.67578917		2.37633131		1.01745164		-0.00002588		 0.00030001		 0.00007130	
Mg		6.02140111		11.72066855		10.05351961		 0.00002588		-0.00030001		-0.00007130	
Mg		6.46680581		9.42483124		5.36507398		 0.00002588		 0.00030001		-0.00007130	
Mg		3.23038447		4.67216862		5.70589834		-0.00002588		-0.00030001		 0.00007130	
Mg		9.71536413		2.50221653		3.44710893		 0.00047554		-0.00000401		 0.00003927	
Mg		-0.01817385		11.59478226		7.62386232		-0.00047554		 0.00000401		-0.00003927	
Mg		0.42723085		9.55071753		2.93541562		-0.00047554		-0.00000401		-0.00003927	
Mg		9.26995943		4.54628233		8.13555456		 0.00047554		 0.00000401		 0.00003927	
O		4.68057305		1.06009355		7.12309647		 0.00041005		-0.00025362		 0.00013029	
O		5.01661723		13.03690524		3.94787478		-0.00041005		 0.00025362		-0.00013029	
O		4.57121253		8.10859455		8.63632148		-0.00041005		-0.00025362		-0.00013029	
O		5.12597774		5.98840638		2.43464977		 0.00041005		 0.00025362		 0.00013029	
O		6.44374134		1.22502859		5.42230731		-0.00061518		 0.00032744		-0.00046860	
O		3.25344893		12.87197127		5.64866394		 0.00061518		-0.00032744		 0.00046860	
O		3.69885363		8.27352852		0.96021831		 0.00061518		 0.00032744		 0.00046860	
O		5.99833557		5.82347134		10.11075294		-0.00061518		-0.00032744		-0.00046860	
O		7.78244417		3.38328010		6.69601253		 0.00008130		 0.00011742		-0.00028722	
O		1.91474611		10.71371977		4.37495979		-0.00008130		-0.00011742		 0.00028722	
O		1.46934141		10.43178003		9.06340650		-0.00008130		 0.00011742		 0.00028722	
O		8.22784887		3.66521983		2.00756583		 0.00008130		-0.00011742		-0.00028722	
O		7.64109150		1.20952253		8.16128146		-0.00036584		-0.00010548		-0.00035637	
O		2.05609663		12.88747840		2.90969086		 0.00036584		 0.00010548		 0.00035637	
O		1.61069193		8.25802354		7.59813649		 0.00036584		-0.00010548		 0.00035637	
O		8.08649835		5.83897847		3.47283476		-0.00036584		 0.00010548		-0.00035637	
O		1.90003246		3.41852337		4.34880720		 0.00037584		 0.00001755		-0.00070628	
O		7.79715675		10.67847649		6.72216405		-0.00037584		-0.00001755		 0.00070628	
O		8.24256252		10.46702330		2.03371949		-0.00037584		 0.00001755		 0.00070628	
O		1.45462669		3.62997656		9.03725283		 0.00037584		-0.00001755		-0.00070628	
O		3.33390434		1.23348663		4.19078614		-0.00035155		 0.00002720		 0.00018937	
O		6.36328486		12.86351323		6.88018511		 0.00035155		-0.00002720		-0.00018937	
O		6.80868956		8.28198656		2.19173948		 0.00035155		 0.00002720		-0.00018937	
O		2.88849857		5.81501223		8.87923177		-0.00035155		-0.00002720		 0.00018937	
O		1.70962036		1.22784865		5.81003476		 0.00064503		 0.00007315		 0.00031560	
O		7.98756992		12.86915121		5.26093649		-0.00064503		-0.00007315		-0.00031560	
O		7.54216522		8.27634858		9.94938319		-0.00064503		 0.00007315		-0.00031560	
O		2.15502506		5.82065128		1.12158914		 0.00064503		-0.00007315		 0.00031560	
O		0.57091677		1.24194574		3.10995495		-0.00003644		-0.00006417		-0.00011264	
O		9.12627351		12.85505412		7.96101630		 0.00003644		 0.00006417		 0.00011264	
O		9.57167821		8.29044567		3.27257067		 0.00003644		-0.00006417		 0.00011264	
O		0.12551207		5.80655419		7.79840058		-0.00003644		 0.00006417		-0.00011264	
O		4.81084705		3.40160621		5.80836524		 0.00018479		-0.00007302		-0.00005523	
O		4.88634323		10.69539365		5.26260708		-0.00018479		 0.00007302		 0.00005523	
O		4.44093746		10.45010614		9.95105163		-0.00018479		-0.00007302		 0.00005523	
O		5.25625282		3.64689372		1.11991854		 0.00018479		 0.00007302		-0.00005523	
O		5.87334999		3.36354395		8.36012480		 0.00008448		-0.00003700		-0.00021717	
O		3.82384029		10.73345591		2.71084752		-0.00008448		 0.00003700		 0.00021717	
O		3.37843452		10.41204495		7.39929208		-0.00008448		-0.00003700		 0.00021717	
O		6.31875469		3.68495598		3.67167917		 0.00008448		 0.00003700		-0.00021717	
O		5.14280912		1.19965553		2.46114227		-0.00033388		-0.00029882		-0.00038275	
O		4.55438116		12.89734540		8.60983005		 0.00033388		 0.00029882		 0.00038275	
O		4.99978586		8.24815546		3.92138442		 0.00033388		-0.00029882		 0.00038275	
O		4.69740442		5.84884547		7.14958790		-0.00033388		 0.00029882		-0.00038275	
O		6.19511158		1.04881652		10.22315225		 0.00027830		-0.00059774		-0.00013703	
O		3.50207763		13.04818334		0.84781900		-0.00027830		 0.00059774		 0.00013703	
O		3.05667293		8.09731752		5.53626463		-0.00027830		-0.00059774		 0.00013703	
O		6.64051735		5.99968341		5.53470662		 0.00027830		 0.00059774		-0.00013703	
O		8.19890088		1.06714263		3.39848055		 0.00013629		 0.00003604		 0.00014045	
O		1.49828940		13.02985723		7.67248963		-0.00013629		-0.00003604		-0.00014045	
O		1.94369410		8.11564256		2.98404400		-0.00013629		 0.00003604		-0.00014045	
O		7.75349618		5.98135730		8.08692725		 0.00013629		-0.00003604		 0.00014045	
O		0.18149835		1.00652631		7.85400406		 0.00011997		-0.00045376		-0.00025296	
O		9.51569086		13.09047355		3.21696719		-0.00011997		 0.00045376		 0.00025296	
O		9.07028616		8.05502624		7.90541282		-0.00011997		-0.00045376		 0.00025296	
O		0.62690304		6.04197362		3.16555843		 0.00011997		 0.00045376		-0.00025296	
O		9.69704767		1.12212098		1.81712048		 0.00026239		 0.00007664		 0.00030327	
O		0.00014047		12.97487888		9.25385184		-0.00026239		-0.00007664		-0.00030327	
O		0.44554731		8.17062091		4.56540621		-0.00026239		 0.00007664		-0.00030327	
O		9.25164297		5.92637895		6.50556504		 0.00026239		-0.00007664		 0.00030327	
O		2.73956498		1.03472050		8.85159516		-0.00019826		 0.00019576		-0.00000716	
O		6.95762637		13.06228044		2.21937716		 0.00019826		-0.00019576		 0.00000716	
O		6.51221953		8.08322043		6.90782172		 0.00019826		 0.00019576		 0.00000716	
O		3.18496968		6.01378051		4.16314953		-0.00019826		-0.00019576		-0.00000716	
O		2.14743769		1.02767141		1.02042074		-0.00035613		-0.00035716		 0.00003143	
O		7.54975151		13.06932952		10.05055051		 0.00035613		 0.00035716		-0.00003143	
O		7.99515728		8.07617134		5.36210488		 0.00035613		-0.00035716		-0.00003143	
O		1.70203300		6.02082852		5.70886745		-0.00035613		 0.00035716		 0.00003143	
O		3.33100815		3.37200199		7.34410679		 0.00026232		 0.00033290		 0.00024486	
O		6.36618320		10.72499787		3.72686554		-0.00026232		-0.00033290		-0.00024486	
O		5.92077743		10.42050192		8.41531009		-0.00026232		 0.00033290		-0.00024486	
O		3.77641285		3.67649794		2.65566116		 0.00026232		-0.00033290		 0.00024486	
O		9.18122827		1.20106449		6.50001070		-0.00003550		 0.00030372		 0.00012096	
O		0.51596201		12.89593644		4.57096055		 0.00003550		-0.00030372		-0.00012096	
O		0.07055731		8.24956550		9.25940725		 0.00003550		 0.00030372		-0.00012096	
O		9.62663297		5.84743544		1.81156507		-0.00003550		-0.00030372		 0.00012096	
O		0.14733270		3.49182676		6.08649308		 0.00028959		-0.00039525		 0.00040411	
O		9.54985650		10.60517418		4.98447925		-0.00028959		 0.00039525		-0.00040411	
O		9.10445180		10.54032669		9.67292488		-0.00028959		-0.00039525		-0.00040411	
O		0.59273847		3.55667317		1.39804745		 0.00028959		 0.00039525		 0.00040411	
O		9.43585308		3.49746581		4.97385415		-0.00059504		 0.00017276		-0.00005190	
O		0.26133720		10.59953512		6.09711817		 0.00059504		-0.00017276		 0.00005190	
O		0.70674190		10.54596574		1.40867147		 0.00059504		 0.00017276		 0.00005190	
O		8.99044838		3.55103519		9.66229978		-0.00059504		-0.00017276		-0.00005190	
H		-0.26978559		2.72072096		5.66848694		-0.00013255		-0.00021596		 0.00010832	
H		9.96697587		11.37627890		5.40248431		 0.00013255		 0.00021596		-0.00010832	
H		9.52157117		9.76922089		10.09092994		 0.00013255		-0.00021596		-0.00010832	
H		0.17561911		4.32777897		0.98004131		-0.00013255		 0.00021596		 0.00010832	
H		9.34920747		2.87578792		5.45595183		 0.00027051		 0.00016549		-0.00034143	
H		0.34798281		11.22121194		5.61501942		-0.00027051		-0.00016549		 0.00034143	
H		0.79338751		9.92428785		0.92657272		-0.00027051		 0.00016549		 0.00034143	
H		8.90380170		4.17271201		10.14439853		 0.00027051		-0.00016549		-0.00034143	
