# total energy = -117599.984046 eV

CRYSTAL
PRIMVEC
		10.58800046		0.00000000		-0.42351959
		0.00000000		14.09699933		0.00000000
		-2.84471694		0.00000000		9.86767382
PRIMECORD
   156 1
Si		8.15432577		0.01395555		0.39707823		-0.00028020		-0.00013841		-0.00015206
Si		-0.41104014		14.08304378		9.04708024		 0.00028020		 0.00013841		 0.00015206
Si		1.01131728		7.06245627		4.11324121		 0.00028020		-0.00013841		 0.00015206
Si		6.73196836		7.03454412		5.33091726		-0.00028020		 0.00013841		-0.00015206
Si		3.35170491		2.67335512		6.43595711		 0.00010495		 0.00017681		 0.00015358
Si		4.39158072		11.42364527		3.00820136		-0.00010495		-0.00017681		-0.00015358
Si		2.96922437		9.72185478		7.94204145		-0.00010495		 0.00017681		-0.00015358
Si		4.77406232		4.37514454		1.50211808		 0.00010495		-0.00017681		 0.00015358
Si		1.04507444		1.76917342		4.12066933		 0.00030988		-0.00010710		 0.00014740
Si		6.69821225		12.32782696		5.32348914		-0.00030988		 0.00010710		-0.00014740
Si		8.12056860		8.81767308		0.38965011		-0.00030988		-0.00010710		-0.00014740
Si		-0.37728403		5.27932730		9.05450942		 0.00030988		 0.00010710		 0.00014740
Si		6.64132406		1.73858248		5.32332595		-0.00001905		-0.00005201		 0.00021438
Si		1.10196052		12.35841685		4.12083251		 0.00001905		 0.00005201		-0.00021438
Si		-0.32039584		8.78708320		9.05467155		 0.00001905		-0.00005201		-0.00021438
Si		8.06368253		5.30991718		0.38948692		-0.00001905		 0.00005201		 0.00021438
Mg		3.87164282		0.00000000		4.72207923		0.00000000		0.00000000		0.00000000
Mg		5.29400023		7.04849966		-0.21175980		-0.00000000		0.00000000		-0.00000000
Mg		4.25645458		2.46006837		3.30593135		-0.00059431		-0.00030357		 0.00025882
Mg		3.48683106		11.63693308		6.13822818		 0.00059431		 0.00030357		-0.00025882
Mg		4.90918847		9.50856803		1.20438915		 0.00059431		-0.00030357		-0.00025882
Mg		2.83409822		4.58843341		8.23977038		-0.00059431		 0.00030357		 0.00025882
Mg		5.29400023		0.00000000		-0.21175980		0.00000000		0.00000000		0.00000000
Mg		3.87164282		7.04849966		4.72207923		-0.00000000		0.00000000		-0.00000000
Mg		6.07710034		0.03510186		2.61617128		 0.00022224		-0.00032366		 0.00029499
Mg		1.66618636		14.06189853		6.82798718		-0.00022224		 0.00032366		-0.00029499
Mg		3.08854271		7.08360152		1.89414815		-0.00022224		-0.00032366		-0.00029499
Mg		4.65474186		7.01339781		7.55001031		 0.00022224		 0.00032366		 0.00029499
Mg		0.36215439		0.00493372		1.47200716		 0.00012566		-0.00070103		-0.00030230
Mg		7.38113230		14.09206561		7.97215131		-0.00012566		 0.00070103		 0.00030230
Mg		8.80348865		7.05343444		3.03831228		-0.00012566		-0.00070103		 0.00030230
Mg		-1.06020408		7.04356595		6.40584619		 0.00012566		 0.00070103		-0.00030230
Mg		-1.11642363		0.00493372		6.23564574		 0.00016604		 0.00000102		 0.00045391
Mg		8.85971033		14.09206561		3.20851167		-0.00016604		-0.00000102		-0.00045391
Mg		7.43735292		7.05343444		8.14235070		-0.00016604		 0.00000102		-0.00045391
Mg		0.30593272		7.04356595		1.30180671		 0.00016604		-0.00000102		 0.00045391
Mg		3.10984691		0.03904904		1.97708246		-0.00019701		-0.00012558		-0.00018959
Mg		4.63343873		14.05795134		7.46707706		 0.00019701		 0.00012558		 0.00018959
Mg		6.05579614		7.08754870		2.53323803		 0.00019701		-0.00012558		 0.00018959
Mg		1.68748949		7.00945062		6.91092149		-0.00019701		 0.00012558		-0.00018959
Mg		6.52283648		2.39564397		0.94476511		 0.00048711		 0.00001817		-0.00012288
Mg		1.22045021		11.70135642		8.49939336		-0.00048711		-0.00001817		 0.00012288
Mg		2.64280656		9.44414363		3.56555433		-0.00048711		 0.00001817		 0.00012288
Mg		5.10047801		4.65285569		5.87860414		 0.00048711		-0.00001817		-0.00012288
Mg		-2.01685948		2.43920393		9.53911871		 0.00019677		 0.00053112		-0.00047249
Mg		9.76014405		11.65779646		-0.09496024		-0.00019677		-0.00053112		 0.00047249
Mg		8.33778664		9.48770359		4.83887879		-0.00019677		 0.00053112		 0.00047249
Mg		-0.59450101		4.60929574		4.60527862		 0.00019677		-0.00053112		-0.00047249
Mg		0.17507907		2.49798783		7.32762862		-0.00020423		 0.00032303		 0.00040043
Mg		7.56820657		11.59901150		2.11652879		 0.00020423		-0.00032303		-0.00040043
Mg		6.14584916		9.54648855		7.05036782		 0.00020423		 0.00032303		-0.00040043
Mg		1.59743648		4.55051078		2.39378959		-0.00020423		-0.00032303		 0.00040043
Mg		5.65436170		2.48008510		8.50219083		-0.00048229		-0.00018989		 0.00009632
Mg		2.08892393		11.61691529		0.94196658		 0.00048229		 0.00018989		-0.00009632
Mg		0.66656652		9.52858582		5.87580561		 0.00048229		-0.00018989		-0.00009632
Mg		7.07671911		4.56841457		3.56835180		-0.00048229		 0.00018989		 0.00009632
Mg		3.58766810		2.37633085		0.29639378		 0.00009599		 0.00000760		 0.00012440
Mg		4.15561754		11.72066954		9.14776469		-0.00009599		-0.00000760		-0.00012440
Mg		5.57797495		9.42483051		4.21392460		-0.00009599		 0.00000760		-0.00012440
Mg		2.16531068		4.67216881		5.23023281		 0.00009599		-0.00000760		 0.00012440
Mg		9.32688949		2.50221688		1.56619280		 0.00029563		-0.00025912		 0.00006575
Mg		-1.58360279		11.59478245		7.87796461		-0.00029563		 0.00025912		-0.00006575
Mg		-0.16124644		9.55071760		2.94412558		-0.00029563		-0.00025912		-0.00006575
Mg		7.90453101		4.54628173		6.50003183		 0.00029563		 0.00025912		 0.00006575
O		3.37223768		1.06009387		6.39631467		 0.00052345		 0.00012419		 0.00050939
O		4.37104795		13.03690545		3.04784274		-0.00052345		-0.00012419		-0.00050939
O		2.94868948		8.10859460		7.98168177		-0.00052345		 0.00012419		-0.00050939
O		4.79459616		5.98840579		1.46247564		 0.00052345		-0.00012419		 0.00050939
O		5.54240473		1.22502894		4.27777255		-0.00031807		-0.00004316		 0.00002274
O		2.20088091		12.87197144		5.16638486		 0.00031807		 0.00004316		-0.00002274
O		3.62323832		8.27352861		0.23254583		 0.00031807		-0.00004316		-0.00002274
O		4.12004732		5.82347072		9.21161158		-0.00031807		 0.00004316		 0.00002274
O		6.66363916		3.38328026		5.31853211		-0.00013412		-0.00001449		-0.00014107
O		1.07964648		10.71372012		4.12562636		 0.00013412		 0.00001449		 0.00014107
O		-0.34270988		10.43177992		9.05946645		 0.00013412		-0.00001449		 0.00014107
O		8.08599551		3.66522046		0.38469308		-0.00013412		 0.00001449		-0.00014107
O		6.21689211		1.20952313		6.86093478		-0.00052758		 0.00045598		 0.00006452
O		1.52639353		12.88747831		2.58322369		 0.00052758		-0.00045598		-0.00006452
O		0.10403717		8.25802280		7.51706272		 0.00052758		 0.00045598		-0.00006452
O		7.63924952		5.83897759		1.92709575		-0.00052758		-0.00045598		 0.00006452
O		1.06981931		3.41852305		4.10163490		-0.00017717		 0.00003123		-0.00060354
O		6.67346738		10.67847733		5.34252251		 0.00017717		-0.00003123		 0.00060354
O		8.09582373		10.46702271		0.40868348		 0.00017717		 0.00003123		 0.00060354
O		-0.35253916		3.62997661		9.03547393		-0.00017717		-0.00003123		-0.00060354
O		2.58321415		1.23348704		3.64411654		 0.00001499		 0.00005226		-0.00049744
O		5.16007148		12.86351334		5.80004299		-0.00001499		-0.00005226		 0.00049744
O		6.58242784		8.28198671		0.86620290		-0.00001499		 0.00005226		 0.00049744
O		1.16085674		5.81501156		8.57795451		 0.00001499		-0.00005226		-0.00049744
O		0.57322860		1.22784866		5.64993344		-0.00027091		 0.00004711		 0.00003804
O		7.17005703		12.86915066		3.79422503		 0.00027091		-0.00004711		-0.00003804
O		5.74769856		8.27634939		8.72806406		 0.00027091		 0.00004711		-0.00003804
O		1.99558707		5.82065100		0.71609441		-0.00027091		-0.00004711		 0.00003804
O		-0.04866639		1.24194620		3.09490483		 0.00028189		-0.00031714		 0.00004224
O		7.79195203		12.85505418		6.34925258		-0.00028189		 0.00031714		-0.00004224
O		9.21430944		8.29044587		1.41541355		-0.00028189		-0.00031714		-0.00004224
O		-1.47102275		5.80655452		8.02874386		 0.00028189		 0.00031714		 0.00004224
O		3.77664549		3.40160579		5.01166796		 0.00027881		-0.00027571		-0.00002776
O		3.96664014		10.69539353		4.43249051		-0.00027881		 0.00027571		 0.00002776
O		2.54428167		10.45010651		9.36632954		-0.00027881		-0.00027571		 0.00002776
O		5.19900290		3.64689387		0.07782893		 0.00027881		 0.00027571		-0.00002776
O		4.35028099		3.36354434		7.42914595		 0.00023710		-0.00024067		 0.00015895
O		3.39300358		10.73345604		2.01501252		-0.00023710		 0.00024067		-0.00015895
O		1.97064723		10.41204506		6.94885155		-0.00023710		-0.00024067		-0.00015895
O		5.77263947		3.68495638		2.49530692		 0.00023710		 0.00024067		 0.00015895
O		4.80654155		1.19965464		1.48638339		 0.00033501		-0.00007944		 0.00006522
O		2.93674408		12.89734468		7.95777508		-0.00033501		 0.00007944		-0.00006522
O		4.35910149		8.24815537		3.02393605		-0.00033501		-0.00007944		-0.00006522
O		3.38418520		5.84884502		6.42022242		 0.00033501		 0.00007944		 0.00006522
O		4.30021587		1.04881711		9.28731274		-0.00001334		 0.00016871		 0.00032756
O		3.44306977		13.04818327		0.15684467		 0.00001334		-0.00016871		-0.00032756
O		2.02071341		8.09731678		5.09068370		 0.00001334		 0.00016871		-0.00032756
O		5.72257328		5.99968255		4.35347371		-0.00001334		-0.00016871		 0.00032756
O		7.77060545		1.06714264		1.82722828		-0.00041570		 0.00005956		 0.00012049
O		-0.02731981		13.02985668		7.61693018		 0.00041570		-0.00005956		-0.00012049
O		1.39503760		8.11564337		2.68309115		 0.00041570		 0.00005956		-0.00012049
O		6.34824803		5.98135702		6.76106838		-0.00041570		-0.00005956		 0.00012049
O		-1.42461128		1.00652555		8.07468166		 0.00044481		 0.00032650		 0.00016176
O		9.16789692		13.09047377		1.36947574		-0.00044481		-0.00032650		-0.00016176
O		7.74553950		8.05502628		6.30331477		-0.00044481		 0.00032650		-0.00016176
O		-0.00225387		6.04197411		3.14084263		 0.00044481		-0.00032650		 0.00016176
O		9.64253493		1.12212135		-0.11356764		 0.00002672		-0.00023726		 0.00016122
O		-1.89924929		12.97487903		9.55772610		-0.00002672		 0.00023726		-0.00016122
O		-0.47689082		8.17062102		4.62388707		-0.00002672		-0.00023726		-0.00016122
O		8.22017751		5.92637937		4.82027140		 0.00002672		 0.00023726		 0.00016122
O		1.01270435		1.03471957		8.57997949		 0.00027409		 0.00057007		-0.00040738
O		6.73058234		13.06227975		0.86417791		-0.00027409		-0.00057007		 0.00040738
O		5.30822493		8.08322030		5.79801695		-0.00027409		 0.00057007		 0.00040738
O		2.43506071		6.01378009		3.64614152		 0.00027409		-0.00057007		-0.00040738
O		2.00851476		1.02767080		0.61316139		 0.00025272		-0.00010724		 0.00015754
O		5.73476981		13.06932852		8.83099708		-0.00025272		 0.00010724		-0.00015754
O		7.15712828		8.07617153		3.89715805		-0.00025272		-0.00010724		-0.00015754
O		0.58615841		6.02082886		5.54700042		 0.00025272		 0.00010724		 0.00015754
O		1.93298950		3.37200244		6.90158812		 0.00003771		 0.00059037		 0.00008932
O		5.81029719		10.72499794		2.54257034		-0.00003771		-0.00059037		-0.00008932
O		4.38793978		10.42050210		7.47640937		-0.00003771		 0.00059037		-0.00008932
O		3.35534586		3.67649828		1.96774909		 0.00003771		-0.00059037		 0.00008932
O		8.14858884		1.20106397		4.82898699		 0.00013202		 0.00012434		-0.00008061
O		-0.40530427		12.89593641		4.61517148		-0.00013202		-0.00012434		 0.00008061
O		-1.82766062		8.24956470		9.54901051		-0.00013202		 0.00012434		 0.00008061
O		9.57094731		5.84743463		-0.10485204		 0.00013202		-0.00012434		-0.00008061
O		-1.09710945		3.49182729		6.25613718		 0.00020233		-0.00018108		-0.00003927
O		8.84039403		10.60517415		3.18802128		-0.00020233		 0.00018108		 0.00003927
O		7.41803662		10.54032695		8.12186137		-0.00020233		-0.00018108		 0.00003927
O		0.32524902		3.55667343		1.32229815		 0.00020233		 0.00018108		-0.00003927
O		8.72482684		3.49746567		3.20044670		 0.00027216		-0.00077717		 0.00029725
O		-0.98154120		10.59953471		6.24371071		-0.00027216		 0.00077717		-0.00029725
O		0.44081621		10.54596639		1.30987168		-0.00027216		-0.00077717		-0.00029725
O		7.30247049		3.55103505		8.13428573		 0.00027216		 0.00077717		 0.00029725
H		-1.44212936		2.72072133		5.91001948		 0.00046968		 0.00064500		 0.00072885
H		9.18541499		11.37627906		3.53413898		-0.00046968		-0.00064500		-0.00072885
H		7.76305652		9.76922099		8.46797802		-0.00046968		 0.00064500		-0.00072885
H		-0.01977195		4.32777940		0.97618045		 0.00046968		-0.00064500		 0.00072885
H		8.53638351		2.87578790		3.71616298		-0.00020457		 0.00063854		-0.00016049
H		-0.79309681		11.22121248		5.72799549		 0.00020457		-0.00063854		 0.00016049
H		0.62925954		9.92428757		0.79415646		 0.00020457		 0.00063854		 0.00016049
H		7.11402610		4.17271176		8.65000201		-0.00020457		-0.00063854		-0.00016049
