# total energy = -12280.850761 eV

CRYSTAL
PRIMVEC
		3.14300039		0.00000000		-0.37715929
		-1.57149861		2.72191912		0.18858123
		-2.73264083		0.00000000		22.77199742
PRIMECORD
   22 1
O		-1.83715398		1.81461180		15.30961452		-0.00163792		 0.00197371		 0.00013157
O		0.67601398		0.90730606		7.27380484		 0.00163792		-0.00197371		-0.00013157
O		-0.53099292		0.90730606		17.33219526		 0.00240444		 0.00102835		 0.00219645
O		-0.63014708		1.81461180		5.25122283		-0.00240444		-0.00102835		-0.00219645
O		-1.23378681		1.81461180		10.28155748		 0.00295333		-0.00102487		 0.00262397
O		0.07264712		0.90730606		12.30186156		-0.00295333		 0.00102487		-0.00262397
O		-2.45035778		1.81461180		20.41965136		 0.00073425		-0.00086188		 0.00240271
O		1.28921810		0.90730606		2.16376706		-0.00073425		 0.00086188		-0.00240271
O		0.00000000		0.00000000		0.00000000		0.00000000		0.00000000		0.00000000
H		-1.71855702		1.81461180		14.32130936		-0.00081129		-0.00027655		-0.00011781
H		0.55741702		0.90730606		8.26210874		 0.00081129		 0.00027655		 0.00011781
H		-1.11491698		1.81461180		9.29097566		 0.00006088		-0.00014969		-0.00362142
H		-0.04622302		0.90730606		13.29244339		-0.00006088		 0.00014969		 0.00362142
H		-2.33148795		1.81461180		19.42906921		 0.00095057		 0.00137436		-0.00105393
H		1.17034795		0.90730606		3.15434888		-0.00095057		-0.00137436		 0.00105393
H		-0.64986307		0.90730606		18.32277741		 0.00089431		 0.00014398		-0.00159628
H		-0.51127693		1.81461180		4.26064069		-0.00089431		-0.00014398		 0.00159628
Mg		-1.96995983		0.00000000		16.41633336		 0.00166360		 0.00056048		 0.00081348
Mg		-0.76268005		0.00000000		6.35566469		-0.00166360		-0.00056048		-0.00081348
Mg		-1.01275808		0.90730606		21.34689910		 0.00070546		-0.00026433		-0.00017466
Mg		-0.14838192		1.81461180		1.23651994		-0.00070546		 0.00026433		 0.00017466
Mg		-1.36632010		0.00000000		11.38599966		0.00000000		0.00000000		0.00000000
