# total energy = -20637.4145733 eV

CRYSTAL
PRIMVEC
		4.74599980		0.00000000		0.00000000
		0.00000000		10.17999872		-0.81439933
		0.00000000		-0.47807880		5.97600159
PRIMECORD
   28 1
Si		2.02227004		0.83638185		1.41752810		-0.00026480		 0.00089643		 0.00067299
Si		2.72372881		8.86553760		3.74407178		 0.00026480		-0.00089643		-0.00067299
Si		4.39527089		3.77553776		4.15127192		-0.00026480		-0.00089643		-0.00067299
Si		0.35072891		5.92638169		1.01032796		 0.00026480		 0.00089643		 0.00067299
Mg		0.00000000		0.00000000		0.00000000		0.00000000		0.00000000		0.00000000
Mg		2.37299990		5.08999984		-0.40720014		0.00000000		-0.00000000		-0.00000000
Mg		0.00000000		-0.23903987		2.98799984		0.00000000		-0.00000000		-0.00000000
Mg		2.37299990		4.85095996		2.58079971		0.00000000		0.00000000		0.00000000
Mg		4.70518373		2.70237608		1.26824790		-0.00070110		 0.00033580		 0.00089806
Mg		0.04081607		6.99954384		3.89335199		 0.00070110		-0.00033580		-0.00089806
Mg		2.33218383		1.90954400		4.30055165		-0.00070110		-0.00033580		-0.00089806
Mg		2.41381503		7.79237545		0.86104776		 0.00070110		 0.00033580		 0.00089806
O		3.63590997		0.81602199		1.41915693		 0.00028905		 0.00076253		 0.00036251
O		1.11008888		8.88589746		3.74244296		-0.00028905		-0.00076253		-0.00036251
O		1.26291102		3.79589763		4.14964262		 0.00028905		-0.00076253		-0.00036251
O		3.48308878		5.90602182		1.01195679		-0.00028905		 0.00076253		 0.00036251
O		1.04506916		4.42992191		1.13004486		-0.00014988		 0.00034240		 0.00038072
O		3.70093065		5.27199801		4.03155503		 0.00014988		-0.00034240		-0.00038072
O		3.41806906		0.18199818		4.43875469		-0.00014988		-0.00034240		-0.00038072
O		1.32793074		9.51992175		0.72284520		 0.00014988		 0.00034240		 0.00038072
O		1.31796415		1.64138410		0.06641600		 0.00007566		-0.00039503		-0.00059353
O		3.42803566		8.06053582		5.09518294		-0.00007566		 0.00039503		 0.00059353
O		3.69096405		2.97053599		5.50238261		 0.00007566		 0.00039503		 0.00059353
O		1.05503576		6.73138393		-0.34078414		-0.00007566		-0.00039503		-0.00059353
O		3.42803566		8.26773573		2.50518501		-0.00050769		 0.00056811		 0.00001213
O		1.31796415		1.43418371		2.65641487		 0.00050769		-0.00056811		-0.00001213
O		1.05503576		6.52418355		2.24921473		-0.00050769		-0.00056811		-0.00001213
O		3.69096405		3.17773590		2.91238468		 0.00050769		 0.00056811		 0.00001213
