# total energy = -20638.464723 eV

CRYSTAL
PRIMVEC
		4.74599980		0.00000000		0.00000000
		0.00000000		10.17999872		-0.40720204
		0.00000000		-0.23904177		5.97600159
PRIMECORD
   28 1
Si		2.02227004		0.89614206		1.45576377		-0.00018944		 0.00021127		-0.00015338
Si		2.72372881		9.04481774		4.11303578		 0.00018944		-0.00021127		 0.00015338
Si		4.39527089		3.95481791		4.31663585		-0.00018944		-0.00021127		 0.00015338
Si		0.35072891		5.98614189		1.25216418		 0.00018944		 0.00021127		-0.00015338
Mg		0.00000000		0.00000000		0.00000000		-0.00000000		0.00000000		0.00000000
Mg		2.37299990		5.08999984		-0.20360007		0.00000000		0.00000000		0.00000000
Mg		0.00000000		-0.11951994		2.98799984		0.00000000		0.00000000		0.00000000
Mg		2.37299990		4.97047990		2.78439978		0.00000000		0.00000000		0.00000000
Mg		4.70518373		2.76213582		1.38112391		-0.00003274		-0.00018892		-0.00074115
Mg		0.04081607		7.17882351		4.18767564		 0.00003274		 0.00018892		 0.00074115
Mg		2.33218383		2.08882415		4.39127571		-0.00003274		 0.00018892		 0.00074115
Mg		2.41381503		7.85213565		1.17752384		 0.00003274		-0.00018892		-0.00074115
O		3.63590997		0.87578219		1.45657771		 0.00009382		 0.00037664		 0.00024994
O		1.11008888		9.06517761		4.11222184		-0.00009382		-0.00037664		-0.00024994
O		1.26291102		3.97517777		4.31582191		 0.00009382		-0.00037664		-0.00024994
O		3.48308878		5.96578155		1.25297812		-0.00009382		 0.00037664		 0.00024994
O		1.04506916		4.48968164		1.31202215		-0.00010804		-0.00023761		 0.00014984
O		3.70093065		5.45127768		4.25677787		 0.00010804		 0.00023761		-0.00014984
O		3.41806906		0.36127784		4.46037794		-0.00010804		 0.00023761		-0.00014984
O		1.32793074		9.57968148		1.10842208		 0.00010804		-0.00023761		 0.00014984
O		1.31796415		1.64934409		0.13270907		-0.00042937		 0.00027076		-0.00074973
O		3.42803566		8.29161571		5.43609096		 0.00042937		-0.00027076		 0.00074973
O		3.69096405		3.20161587		5.63969055		-0.00042937		-0.00027076		 0.00074973
O		1.05503576		6.73934392		-0.07089100		 0.00042937		 0.00027076		-0.00074973
O		3.42803566		8.39521566		2.84609303		-0.00030594		 0.00037167		 0.00014483
O		1.31796415		1.54574413		2.72270700		 0.00030594		-0.00037167		-0.00014483
O		1.05503576		6.63574350		2.51910693		-0.00030594		-0.00037167		-0.00014483
O		3.69096405		3.30521583		3.04969310		 0.00030594		 0.00037167		 0.00014483
