# total energy = -18509.2717644 eV	

CRYSTAL	
PRIMVEC	
		7.02599999		0.00000000		0.00000000	
		0.00000000		6.22800096		0.00000000	
		-0.43440353		0.00000000		4.13381033	
PRIMCOORD
   30 1	
Mg		0.16677405		1.55700024		2.22398896		-0.00000193		-0.00000000		-0.00006590	
Mg		6.42482381		4.67100002		1.90981996		 0.00000193		0.00000000		 0.00006590	
Mg		4.73063390		1.55700024		3.79070264		 0.00017744		0.00000000		-0.00039629	
Mg		1.86096467		4.67100002		0.34310628		-0.00017744		0.00000000		 0.00039629	
Mg		2.80620688		1.55700024		0.17362019		 0.00018586		-0.00000000		 0.00022748	
Mg		3.78539099		4.67100002		3.96018873		-0.00018586		0.00000000		-0.00022748	
Si		0.00000000		0.00000000		0.00000000		0.00000000		0.00000000		0.00000000	
Si		0.00000000		3.11399978		0.00000000		0.00000000		0.00000000		0.00000000	
Si		2.07748702		3.12645617		2.29426371		 0.00006666		 0.00003732		 0.00009578	
Si		4.51411084		3.10154408		1.83954521		-0.00006666		-0.00003732		-0.00009578	
Si		4.51411084		0.01245569		1.83954521		-0.00006666		 0.00003732		-0.00009578	
Si		2.07748702		6.21554386		2.29426371		 0.00006666		-0.00003732		 0.00009578	
O		5.50377634		3.48767969		0.57873302		 0.00014264		 0.00009219		-0.00016197	
O		1.08782223		2.74031986		3.55507590		-0.00014264		-0.00009219		 0.00016197	
O		1.08782223		0.37367992		3.55507590		-0.00014264		 0.00009219		 0.00016197	
O		5.50377634		5.85431964		0.57873302		 0.00014264		-0.00009219		-0.00016197	
O		5.86321666		2.74654771		2.70764474		 0.00007256		 0.00003472		-0.00013365	
O		0.72838120		3.48145185		1.42616418		-0.00007256		-0.00003472		 0.00013365	
O		0.72838120		5.86054819		1.42616418		-0.00007256		 0.00003472		 0.00013365	
O		5.86321666		0.36745207		2.70764474		 0.00007256		-0.00003472		-0.00013365	
O		1.96359767		1.55700024		1.77340385		 0.00011120		0.00000000		 0.00005314	
O		4.62800090		4.67100002		2.36040507		-0.00011120		0.00000000		-0.00005314	
O		3.11234796		3.45653976		1.00451565		 0.00012193		-0.00002843		-0.00014548	
O		3.47924990		2.77145979		3.12929327		-0.00012193		 0.00002843		 0.00014548	
O		3.47924990		0.34253998		3.12929327		-0.00012193		-0.00002843		 0.00014548	
O		3.11234796		5.88546028		1.00451565		 0.00012193		 0.00002843		-0.00014548	
O		4.38877614		1.55700024		1.29388216		 0.00045423		0.00000000		 0.00022075	
O		2.20282173		4.67100002		2.83992676		-0.00045423		0.00000000		-0.00022075	
O		6.82103681		1.55700024		0.47952169		 0.00023058		0.00000000		-0.00016504	
O		-0.22943895		4.67100002		3.65428723		-0.00023058		0.00000000		 0.00016504	
