# total energy = -18520.4923001 eV	

CRYSTAL	
PRIMVEC	
		7.02599999		0.00000000		0.00000000	
		0.00000000		6.22800096		0.00000000	
		-0.43440353		0.00000000		4.55778727	
PRIMCOORD
   30 1	
Mg		0.16677405		1.55700024		2.45209086		 0.00046344		0.00000000		 0.00047594	
Mg		6.42482381		4.67100002		2.10569922		-0.00046344		0.00000000		-0.00047594	
Mg		4.73063390		1.55700024		4.17949268		-0.00066449		0.00000000		 0.00080216	
Mg		1.86096467		4.67100002		0.37829670		 0.00066449		0.00000000		-0.00080216	
Mg		2.80620688		1.55700024		0.19142688		 0.00034603		-0.00000000		-0.00040091	
Mg		3.78539099		4.67100002		4.36636179		-0.00034603		-0.00000000		 0.00040091	
Si		0.00000000		0.00000000		0.00000000		0.00000000		0.00000000		0.00000000	
Si		0.00000000		3.11399978		0.00000000		0.00000000		0.00000000		0.00000000	
Si		2.07748702		3.12645617		2.52957288		 0.00075033		 0.00039819		-0.00078551	
Si		4.51411084		3.10154408		2.02821579		-0.00075033		-0.00039819		 0.00078551	
Si		4.51411084		0.01245569		2.02821579		-0.00075033		 0.00039819		 0.00078551	
Si		2.07748702		6.21554386		2.52957288		 0.00075033		-0.00039819		-0.00078551	
O		5.50377634		3.48767969		0.63809078		-0.00027744		-0.00026359		 0.00023984	
O		1.08782223		2.74031986		3.91969930		 0.00027744		 0.00026359		-0.00023984	
O		1.08782223		0.37367992		3.91969930		 0.00027744		-0.00026359		-0.00023984	
O		5.50377634		5.85431964		0.63809078		-0.00027744		 0.00026359		 0.00023984	
O		5.86321666		2.74654771		2.98535231		 0.00049073		-0.00024901		 0.00085488	
O		0.72838120		3.48145185		1.57243777		-0.00049073		 0.00024901		-0.00085488	
O		0.72838120		5.86054819		1.57243777		-0.00049073		-0.00024901		-0.00085488	
O		5.86321666		0.36745207		2.98535231		 0.00049073		 0.00024901		 0.00085488	
O		1.96359767		1.55700024		1.95529224		 0.00035150		0.00000000		-0.00013112	
O		4.62800090		4.67100002		2.60249784		-0.00035150		0.00000000		 0.00013112	
O		3.11234796		3.45653976		1.10754281		-0.00029699		 0.00040210		 0.00034572	
O		3.47924990		2.77145979		3.45024727		 0.00029699		-0.00040210		-0.00034572	
O		3.47924990		0.34253998		3.45024727		 0.00029699		 0.00040210		-0.00034572	
O		3.11234796		5.88546028		1.10754281		-0.00029699		-0.00040210		 0.00034572	
O		4.38877614		1.55700024		1.42658784		-0.00051601		0.00000000		 0.00030937	
O		2.20282173		4.67100002		3.13120224		 0.00051601		0.00000000		-0.00030937	
O		6.82103681		1.55700024		0.52870369		-0.00022702		0.00000000		 0.00019510	
O		-0.22943895		4.67100002		4.02908569		 0.00022702		0.00000000		-0.00019510	
