# total energy = -18521.9383908 eV	

CRYSTAL	
PRIMVEC	
		7.02599999		0.00000000		0.00000000	
		0.00000000		6.22800096		0.00000000	
		-0.43440353		0.00000000		4.66378151	
PRIMCOORD
   30 1	
Mg		0.16677405		1.55700024		2.50911598		 0.00039440		-0.00000000		 0.00025645	
Mg		6.42482381		4.67100002		2.15466904		-0.00039440		-0.00000000		-0.00025645	
Mg		4.73063390		1.55700024		4.27668966		-0.00020020		0.00000000		 0.00076815	
Mg		1.86096467		4.67100002		0.38709396		 0.00020020		0.00000000		-0.00076815	
Mg		2.80620688		1.55700024		0.19587926		-0.00012963		0.00000000		-0.00005847	
Mg		3.78539099		4.67100002		4.46790576		 0.00012963		-0.00000000		 0.00005847	
Si		0.00000000		0.00000000		0.00000000		0.00000000		0.00000000		0.00000000	
Si		0.00000000		3.11399978		0.00000000		0.00000000		0.00000000		0.00000000	
Si		2.07748702		3.12645617		2.58840018		 0.00001365		 0.00001242		-0.00077991	
Si		4.51411084		3.10154408		2.07538414		-0.00001365		-0.00001242		 0.00077991	
Si		4.51411084		0.01245569		2.07538414		-0.00001365		 0.00001242		 0.00077991	
Si		2.07748702		6.21554386		2.58840018		 0.00001365		-0.00001242		-0.00077991	
O		5.50377634		3.48767969		0.65292969		-0.00045878		 0.00004701		 0.00027870	
O		1.08782223		2.74031986		4.01085533		 0.00045878		-0.00004701		-0.00027870	
O		1.08782223		0.37367992		4.01085533		 0.00045878		 0.00004701		-0.00027870	
O		5.50377634		5.85431964		0.65292969		-0.00045878		-0.00004701		 0.00027870	
O		5.86321666		2.74654771		3.05477903		 0.00006751		-0.00035388		 0.00043581	
O		0.72838120		3.48145185		1.60900599		-0.00006751		 0.00035388		-0.00043581	
O		0.72838120		5.86054819		1.60900599		-0.00006751		-0.00035388		-0.00043581	
O		5.86321666		0.36745207		3.05477903		 0.00006751		 0.00035388		 0.00043581	
O		1.96359767		1.55700024		2.00076380		 0.00019581		0.00000000		-0.00007427	
O		4.62800090		4.67100002		2.66302121		-0.00019581		0.00000000		 0.00007427	
O		3.11234796		3.45653976		1.13330012		-0.00039903		 0.00044442		-0.00010371	
O		3.47924990		2.77145979		3.53048490		 0.00039903		-0.00044442		 0.00010371	
O		3.47924990		0.34253998		3.53048490		 0.00039903		 0.00044442		 0.00010371	
O		3.11234796		5.88546028		1.13330012		-0.00039903		-0.00044442		-0.00010371	
O		4.38877614		1.55700024		1.45976532		-0.00009605		0.00000000		 0.00008012	
O		2.20282173		4.67100002		3.20401970		 0.00009605		0.00000000		-0.00008012	
O		6.82103681		1.55700024		0.54099919		 0.00004017		0.00000000		-0.00004192	
O		-0.22943895		4.67100002		4.12278583		-0.00004017		0.00000000		 0.00004192	
