# total energy = -18516.0845425 eV	

CRYSTAL	
PRIMVEC	
		7.02599999		0.00000000		0.00000000	
		0.00000000		6.22800096		0.00000000	
		-0.43440353		0.00000000		4.34579880	
PRIMCOORD
   30 1	
Mg		0.16677405		1.55700024		2.33803991		 0.00038035		-0.00000000		 0.00011506	
Mg		6.42482381		4.67100002		2.00775889		-0.00038035		0.00000000		-0.00011506	
Mg		4.73063390		1.55700024		3.98509801		 0.00000581		0.00000000		 0.00055395	
Mg		1.86096467		4.67100002		0.36070079		-0.00000581		0.00000000		-0.00055395	
Mg		2.80620688		1.55700024		0.18252424		 0.00009373		0.00000000		 0.00006684	
Mg		3.78539099		4.67100002		4.16327596		-0.00009373		0.00000000		-0.00006684	
Si		0.00000000		0.00000000		0.00000000		0.00000000		0.00000000		0.00000000	
Si		0.00000000		3.11399978		0.00000000		0.00000000		0.00000000		0.00000000	
Si		2.07748702		3.12645617		2.41191900		 0.00001185		 0.00026298		-0.00042883	
Si		4.51411084		3.10154408		1.93388120		-0.00001185		-0.00026298		 0.00042883	
Si		4.51411084		0.01245569		1.93388120		-0.00001185		 0.00026298		 0.00042883	
Si		2.07748702		6.21554386		2.41191900		 0.00001185		-0.00026298		-0.00042883	
O		5.50377634		3.48767969		0.60841225		-0.00032271		-0.00013963		 0.00015460	
O		1.08782223		2.74031986		3.73738725		 0.00032271		 0.00013963		-0.00015460	
O		1.08782223		0.37367992		3.73738725		 0.00032271		-0.00013963		-0.00015460	
O		5.50377634		5.85431964		0.60841225		-0.00032271		 0.00013963		 0.00015460	
O		5.86321666		2.74654771		2.84649818		 0.00007584		-0.00027762		 0.00022958	
O		0.72838120		3.48145185		1.49930132		-0.00007584		 0.00027762		-0.00022958	
O		0.72838120		5.86054819		1.49930132		-0.00007584		-0.00027762		-0.00022958	
O		5.86321666		0.36745207		2.84649818		 0.00007584		 0.00027762		 0.00022958	
O		1.96359767		1.55700024		1.86434769		 0.00010541		0.00000000		 0.00004562	
O		4.62800090		4.67100002		2.48145111		-0.00010541		0.00000000		-0.00004562	
O		3.11234796		3.45653976		1.05602888		-0.00014130		 0.00037916		 0.00015102	
O		3.47924990		2.77145979		3.28976992		 0.00014130		-0.00037916		-0.00015102	
O		3.47924990		0.34253998		3.28976992		 0.00014130		 0.00037916		-0.00015102	
O		3.11234796		5.88546028		1.05602888		-0.00014130		-0.00037916		 0.00015102	
O		4.38877614		1.55700024		1.36023500		-0.00008046		0.00000000		 0.00005219	
O		2.20282173		4.67100002		2.98556380		 0.00008046		0.00000000		-0.00005219	
O		6.82103681		1.55700024		0.50411269		 0.00003533		0.00000000		 0.00014291	
O		-0.22943895		4.67100002		3.84168681		-0.00003533		0.00000000		-0.00014291	
