# total energy = -18499.5581532 eV	

CRYSTAL	
PRIMVEC	
		7.02599999		0.00000000		0.00000000	
		0.00000000		6.22800096		0.00000000	
		-0.43440353		0.00000000		3.92182185	
PRIMCOORD
   30 1	
Mg		0.16677405		1.55700024		2.10993871		-0.00043043		-0.00000000		-0.00040947	
Mg		6.42482381		4.67100002		1.81188033		 0.00043043		0.00000000		 0.00040947	
Mg		4.73063390		1.55700024		3.59630798		-0.00013480		-0.00000000		-0.00004068	
Mg		1.86096467		4.67100002		0.32551107		 0.00013480		0.00000000		 0.00004068	
Mg		2.80620688		1.55700024		0.16471614		 0.00031405		0.00000000		-0.00036054	
Mg		3.78539099		4.67100002		3.75710291		-0.00031405		0.00000000		 0.00036054	
Si		0.00000000		0.00000000		0.00000000		0.00000000		0.00000000		0.00000000	
Si		0.00000000		3.11399978		0.00000000		0.00000000		0.00000000		0.00000000	
Si		2.07748702		3.12645617		2.17660983		 0.00002984		-0.00038861		 0.00050609	
Si		4.51411084		3.10154408		1.74520921		-0.00002984		 0.00038861		-0.00050609	
Si		4.51411084		0.01245569		1.74520921		-0.00002984		-0.00038861		-0.00050609	
Si		2.07748702		6.21554386		2.17660983		 0.00002984		 0.00038861		 0.00050609	
O		5.50377634		3.48767969		0.54905520		-0.00001314		 0.00023544		-0.00013250	
O		1.08782223		2.74031986		3.37276384		 0.00001314		-0.00023544		 0.00013250	
O		1.08782223		0.37367992		3.37276384		 0.00001314		 0.00023544		 0.00013250	
O		5.50377634		5.85431964		0.54905520		-0.00001314		-0.00023544		-0.00013250	
O		5.86321666		2.74654771		2.56879131		 0.00022592		 0.00037333		-0.00010713	
O		0.72838120		3.48145185		1.35302773		-0.00022592		-0.00037333		 0.00010713	
O		0.72838120		5.86054819		1.35302773		-0.00022592		 0.00037333		 0.00010713	
O		5.86321666		0.36745207		2.56879131		 0.00022592		-0.00037333		-0.00010713	
O		1.96359767		1.55700024		1.68246001		-0.00022445		0.00000000		 0.00001840	
O		4.62800090		4.67100002		2.23935904		 0.00022445		0.00000000		-0.00001840	
O		3.11234796		3.45653976		0.95300172		-0.00027708		-0.00026648		-0.00003907	
O		3.47924990		2.77145979		2.96881732		 0.00027708		 0.00026648		 0.00003907	
O		3.47924990		0.34253998		2.96881732		 0.00027708		-0.00026648		 0.00003907	
O		3.11234796		5.88546028		0.95300172		-0.00027708		 0.00026648		-0.00003907	
O		4.38877614		1.55700024		1.22752932		-0.00053868		-0.00000000		-0.00021356	
O		2.20282173		4.67100002		2.69428972		 0.00053868		0.00000000		 0.00021356	
O		6.82103681		1.55700024		0.45493069		-0.00082277		0.00000000		-0.00051119	
O		-0.22943895		4.67100002		3.46688765		 0.00082277		0.00000000		 0.00051119	
