# total energy = -18493.430937 eV	

CRYSTAL	
PRIMVEC	
		7.02599999		0.00000000		0.00000000	
		0.00000000		6.22800096		0.00000000	
		-0.43440353		0.00000000		3.81582059	
PRIMCOORD
   30 1	
Mg		0.16677405		1.55700024		2.05291288		 0.00027384		-0.00000000		 0.00002548	
Mg		6.42482381		4.67100002		1.76291122		-0.00027384		0.00000000		-0.00002548	
Mg		4.73063390		1.55700024		3.49911029		-0.00040405		-0.00000000		-0.00038636	
Mg		1.86096467		4.67100002		0.31671311		 0.00040405		0.00000000		 0.00038636	
Mg		2.80620688		1.55700024		0.16026517		 0.00039731		-0.00000000		-0.00029578	
Mg		3.78539099		4.67100002		3.65555894		-0.00039731		0.00000000		 0.00029578	
Si		0.00000000		0.00000000		0.00000000		0.00000000		0.00000000		0.00000000	
Si		0.00000000		3.11399978		0.00000000		0.00000000		0.00000000		0.00000000	
Si		2.07748702		3.12645617		2.11778183		 0.00039907		 0.00039689		-0.00012688	
Si		4.51411084		3.10154408		1.69804227		-0.00039907		-0.00039689		 0.00012688	
Si		4.51411084		0.01245569		1.69804227		-0.00039907		 0.00039689		 0.00012688	
Si		2.07748702		6.21554386		2.11778183		 0.00039907		-0.00039689		-0.00012688	
O		5.50377634		3.48767969		0.53421488		 0.00041000		 0.00025953		-0.00037761	
O		1.08782223		2.74031986		3.28160922		-0.00041000		-0.00025953		 0.00037761	
O		1.08782223		0.37367992		3.28160922		-0.00041000		 0.00025953		 0.00037761	
O		5.50377634		5.85431964		0.53421488		 0.00041000		-0.00025953		-0.00037761	
O		5.86321666		2.74654771		2.49936389		 0.00000966		-0.00016358		-0.00004160	
O		0.72838120		3.48145185		1.31645881		-0.00000966		 0.00016358		 0.00004160	
O		0.72838120		5.86054819		1.31645881		-0.00000966		-0.00016358		 0.00004160	
O		5.86321666		0.36745207		2.49936389		 0.00000966		 0.00016358		-0.00004160	
O		1.96359767		1.55700024		1.63698774		-0.00042782		-0.00000000		 0.00002278	
O		4.62800090		4.67100002		2.17883496		 0.00042782		0.00000000		-0.00002278	
O		3.11234796		3.45653976		0.92724511		-0.00013179		 0.00008574		 0.00026818	
O		3.47924990		2.77145979		2.88857830		 0.00013179		-0.00008574		-0.00026818	
O		3.47924990		0.34253998		2.88857830		 0.00013179		 0.00008574		-0.00026818	
O		3.11234796		5.88546028		0.92724511		-0.00013179		-0.00008574		 0.00026818	
O		4.38877614		1.55700024		1.19435325		-0.00026173		0.00000000		 0.00010970	
O		2.20282173		4.67100002		2.62147086		 0.00026173		0.00000000		-0.00010970	
O		6.82103681		1.55700024		0.44263589		-0.00086799		0.00000000		-0.00033664	
O		-0.22943895		4.67100002		3.37318821		 0.00086799		0.00000000		 0.00033664	
