# total energy = -24716.2347145 eV

CRYSTAL
PRIMVEC
		10.30582143		0.00000968		0.41039695
		0.00000968		9.03433825		0.00000000
		1.92398258		0.00000000		5.07149834
PRIMECORD
   40 1
Si		2.71251455		3.72812987		1.59312375		 0.00006958		-0.00003350		-0.00017242
Si		9.51729333		5.30621903		3.88876186		-0.00006728		 0.00003180		 0.00017224
Si		3.40237777		8.24526414		1.14782293		 0.00000179		 0.00005345		 0.00016528
Si		8.82743204		0.78908185		4.33406269		-0.00000690		-0.00004722		-0.00016369
Si		8.54634518		3.70900989		1.35648139		 0.00001998		 0.00011648		 0.00016678
Si		3.68346367		5.32533804		4.12540422		-0.00002236		-0.00011807		-0.00016669
Si		7.87443924		8.22617321		1.79483223		-0.00019290		 0.00009580		-0.00012294
Si		4.35536670		0.80817182		3.68705435		 0.00019849		-0.00008902		 0.00012109
O		4.22999968		3.66995383		0.97398798		-0.00024257		-0.00031934		 0.00027460
O		7.99980916		5.36439409		4.50789860		 0.00024196		 0.00032049		-0.00027432
O		1.88494298		8.18711909		1.76695676		 0.00017865		-0.00032894		-0.00025540
O		10.34486393		0.84722884		3.71492886		-0.00017687		 0.00032878		 0.00025474
O		9.35268535		2.32866193		1.12795558		 0.00023238		 0.00013905		 0.00021619
O		2.87712253		6.70568600		4.35393004		-0.00023227		-0.00013774		-0.00021648
O		7.06802743		6.84581460		2.02337160		-0.00019382		 0.00017795		-0.00022662
O		5.16178141		2.18853527		3.45851499		 0.00019054		-0.00018192		 0.00022759
O		3.73971899		4.76486622		5.71068153		-0.00000850		-0.00017897		-0.00012134
O		8.49008985		4.26948171		-0.22879591		 0.00000825		 0.00017918		 0.00012027
O		4.29919754		9.28204309		2.10177898		-0.00002582		-0.00020947		 0.00009931
O		7.93061131		-0.24769419		3.38010760		 0.00002469		 0.00020696		-0.00010110
O		9.44945275		4.73636536		2.31038130		 0.00005853		 0.00022409		-0.00015707
O		2.78035513		4.29798160		3.17150431		-0.00005797		-0.00022345		 0.00015799
O		8.89524745		9.25352287		5.91242486		-0.00003235		 0.00021306		 0.00016325
O		3.33456043		-0.21917397		-0.43053924		 0.00003346		-0.00021561		-0.00016115
O		1.89547978		2.35344142		1.82349283		 0.00015091		-0.00002127		 0.00005242
O		10.33432907		6.68090651		3.65839278		-0.00015099		 0.00002278		-0.00005227
O		4.21942610		6.87063862		0.91744804		-0.00014110		-0.00007134		-0.00004970
O		8.01038081		2.16371028		4.56443757		 0.00014406		 0.00006796		 0.00004886
O		7.02703227		3.65941607		1.96971756		 0.00045070		 0.00007085		-0.00006558
O		5.20277561		5.37493186		3.51216806		-0.00044959		-0.00006983		 0.00006521
O		9.39365147		8.17658906		1.18162026		-0.00032856		 0.00006529		 0.00002151
O		2.83615738		0.85775887		4.30026535		 0.00032607		-0.00006539		-0.00002062
Mg		0.47966063		0.97036923		1.26832330		 0.00000335		 0.00004114		-0.00009006
Mg		1.44432969		8.06397096		3.80316923		-0.00000338		-0.00004206		 0.00009004
Mg		5.63523653		5.48753835		1.47261370		 0.00004858		-0.00003609		 0.00008916
Mg		6.59457135		3.54681055		4.00927288		-0.00004862		 0.00003441		-0.00008911
Mg		0.49351995		6.72093164		1.26595823		-0.00023118		-0.00001948		 0.00029535
Mg		1.43047037		2.31340855		3.80553430		 0.00023104		 0.00001940		-0.00029532
Mg		5.62138592		2.20376735		1.47498361		-0.00007817		 0.00003229		-0.00027021
Mg		6.60842196		6.83058058		4.00690201		 0.00007818		-0.00003247		 0.00027020
