# total energy = -24716.119151 eV

CRYSTAL
PRIMVEC
		9.25265448		-0.00001936		-0.55168147
		-0.00000968		8.68771972		0.00001936
		1.26479361		0.00000968		4.77072904
PRIMECORD
   40 1
Si		2.12128039		3.55010789		0.89377509		 0.00009316		 0.00004355		 0.00010780
Si		8.39615608		5.13760215		3.32528603		-0.00009451		-0.00004510		-0.00010672
Si		3.13742429		7.89396969		1.21577386		-0.00009511		 0.00003093		-0.00011395
Si		7.38001218		0.79374035		3.00328726		 0.00009617		-0.00003148		 0.00011313
Si		7.76331201		3.55105373		0.93966013		-0.00012696		-0.00025432		-0.00009941
Si		2.75412349		5.13665535		3.27940100		 0.00012851		 0.00025236		 0.00009803
Si		6.74802682		7.89487680		0.61822672		 0.00022530		-0.00011990		 0.00000604
Si		3.76940965		0.79283324		3.60083440		-0.00022648		 0.00011901		-0.00000496
O		3.67655628		3.55393479		0.45448423		-0.00003756		 0.00009753		-0.00022013
O		6.84087923		5.13377428		3.76457690		 0.00003832		-0.00009755		 0.00021991
O		1.58215421		7.89779950		1.65505795		 0.00003354		 0.00009627		 0.00022482
O		8.93528226		0.78991055		2.56400220		-0.00003418		-0.00009644		-0.00022455
O		8.28663299		2.28502773		0.13940350		-0.00002928		 0.00008579		-0.00020428
O		2.23080348		6.40268135		4.07965763		 0.00002861		-0.00008461		 0.00020509
O		6.22475909		6.62892244		1.41842914		-0.00002568		-0.00002987		 0.00027631
O		4.29267738		2.05878663		2.80063198		 0.00002630		 0.00003099		-0.00027701
O		2.47720236		3.80625941		4.27266869		-0.00005698		-0.00004815		-0.00011199
O		8.04023411		4.88144966		-0.05360757		 0.00005693		 0.00004813		 0.00011180
O		4.04629400		8.15010572		2.60760930		 0.00006263		-0.00003664		 0.00011574
O		6.47114151		0.53760432		1.61145182		-0.00006268		 0.00003681		-0.00011572
O		8.67151857		3.80683253		2.33194476		 0.00028458		-0.00008402		 0.00004130
O		1.84591790		4.88087655		1.88711636		-0.00028467		 0.00008421		-0.00004101
O		7.10463613		8.15069626		3.99663821		-0.00028726		-0.00009810		-0.00002598
O		3.41279937		0.53701282		0.22242291		 0.00028738		 0.00009844		 0.00002600
O		1.59576376		2.28501998		1.69377034		 0.00033154		-0.00002791		 0.00020623
O		8.92167174		6.40268909		2.52529079		-0.00033096		 0.00002889		-0.00020698
O		3.66294189		6.62887017		0.41576991		-0.00032660		-0.00002362		-0.00019815
O		6.85449458		2.05883988		3.80329025		 0.00032613		 0.00002469		 0.00019877
O		6.20806323		3.55520785		1.37911266		-0.00008812		-0.00019174		 0.00011128
O		4.30937227		5.13250220		2.83994846		 0.00008706		 0.00019169		-0.00011104
O		8.30331335		7.89905996		0.17873934		 0.00003349		-0.00019814		-0.00009026
O		2.21412215		0.78865008		4.04032179		-0.00003260		 0.00019805		 0.00008992
Mg		0.31545732		0.81610830		1.19234197		 0.00008102		-0.00029200		 0.00007864
Mg		0.94931886		7.87161723		3.57840546		-0.00008109		 0.00029255		-0.00007859
Mg		4.94325898		5.15995655		0.91719343		-0.00008488		-0.00028514		-0.00008149
Mg		5.57417652		3.52775253		3.30186769		 0.00008487		 0.00028500		 0.00008147
Mg		0.31716311		6.30955303		1.19326941		-0.00013629		-0.00020121		-0.00026028
Mg		0.94761404		2.37817250		3.57747705		 0.00013634		 0.00020110		 0.00026044
Mg		4.94154834		1.96569704		0.91627083		 0.00013904		-0.00021283		 0.00025628
Mg		5.57588813		6.72201300		3.30279029		-0.00013906		 0.00021275		-0.00025648
