# total energy = -10317.0900653 eV	

CRYSTAL	
PRIMVEC	
		4.97999984		0.00000000		0.00000000	
		0.00000000		8.62875111		0.00000000	
		0.00000000		0.00000000		2.75000073	
PRIMCOORD
   14 1	
Si		0.00000000		0.00000000		0.00000000		0.00000000		0.00000000		0.00000000	
Si		2.48999992		4.31437506		0.00000000		0.00000000		0.00000000		0.00000000	
Mg		0.40786199		2.87251072		1.37499987		-0.00064262		 0.00009043		0.00000000	
Mg		4.57213786		5.75623889		1.37499987		 0.00064262		-0.00009043		0.00000000	
Mg		2.08213793		7.18688578		1.37499987		 0.00064262		 0.00009043		-0.00000000	
Mg		2.89786191		1.44186384		1.37499987		-0.00064262		-0.00009043		-0.00000000	
O		1.07767197		0.38656801		1.37499987		-0.00015326		-0.00025715		-0.00000000	
O		3.90232788		8.24218161		1.37499987		 0.00015326		 0.00025715		0.00000000	
O		1.41232796		4.70094306		1.37499987		 0.00015326		-0.00025715		-0.00000000	
O		3.56767189		3.92780705		1.37499987		-0.00015326		 0.00025715		-0.00000000	
O		1.95464994		2.66369485		0.00000000		 0.00001826		-0.00066406		0.00000000	
O		3.02534991		5.96505477		0.00000000		-0.00001826		 0.00066406		0.00000000	
O		0.53534998		6.97806990		0.00000000		-0.00001826		-0.00066406		-0.00000000	
O		4.44464986		1.65067971		0.00000000		 0.00001826		 0.00066406		-0.00000000	
