
     Program PWSCF v.6.6 starts on  4Feb2024 at 13:34:49 

     This program is part of the open-source Quantum ESPRESSO suite
     for quantum simulation of materials; please cite
         "P. Giannozzi et al., J. Phys.:Condens. Matter 21 395502 (2009);
         "P. Giannozzi et al., J. Phys.:Condens. Matter 29 465901 (2017);
          URL http://www.quantum-espresso.org", 
     in publications or presentations arising from this work. More details at
     http://www.quantum-espresso.org/quote

     Parallel version (MPI & OpenMP), running on      16 processor cores
     Number of MPI processes:                16
     Threads/MPI process:                     1

     MPI processes distributed on     2 nodes
     R & G space division:  proc/nbgrp/npool/nimage =      16
     Fft bands division:     nmany     =       1
     Waiting for input...
     Reading input from standard input

     Current dimensions of program PWSCF are:
     Max number of different atomic species (ntypx) = 10
     Max number of k-points (npk) =  40000
     Max angular momentum in pseudopotentials (lmaxx) =  3

     IMPORTANT: XC functional enforced from input :
     Exchange-correlation= PBE
                           (   1   4   3   4   0   0   0)
     Any further DFT definition will be discarded
     Please, verify this is what you really want


     --------------------------------------------
     Parameters for DFT-D3 Dispersion Correction:
     --------------------------------------------
       Reference C6 values for interpolation: 

         atom   Coordination number   C6
         O          0.000            31.01
         O          0.993            25.63
         O          1.989            20.74
         Mg         0.000          1366.75
         Mg         0.963           902.54
         Mg         1.950           351.12

       Values used:

         atom   Coordination number  R0_AB[au]  C6      C8
         Mg        16.582            3.292    351.12  31436.69
         Mg        16.582            3.292    351.12  31436.69
         Mg        16.582            3.292    351.12  31436.69
         Mg        16.582            3.292    351.12  31436.69
         O          5.817            2.345     20.74    418.58
         O          5.817            2.345     20.74    418.58
         O          5.817            2.345     20.74    418.58
         O          5.817            2.345     20.74    418.58

         Molecular C6 ( Ry / a.u.^6 ) =      8251.69


     Subspace diagonalization in iterative solution of the eigenvalue problem:
     a serial algorithm will be used

     Found symmetry operation: I + (  0.0000 -0.5000 -0.5000)
     This is a supercell, fractional translations are disabled
 
     Parallelization info
     --------------------
     sticks:   dense  smooth     PW     G-vecs:    dense   smooth      PW
     Min         126     126     35                 4252     4252     619
     Max         127     127     36                 4255     4255     623
     Sum        2025    2025    561                68051    68051    9939
 


     bravais-lattice index     =            0
     lattice parameter (alat)  =       7.9576  a.u.
     unit-cell volume          =     503.9092 (a.u.)^3
     number of atoms/cell      =            8
     number of atomic types    =            2
     number of electrons       =        64.00
     number of Kohn-Sham states=           38
     kinetic-energy cutoff     =     100.0000  Ry
     charge density cutoff     =     400.0000  Ry
     convergence threshold     =      1.0E-06
     mixing beta               =       0.5000
     number of iterations used =            8  plain     mixing
     Exchange-correlation= PBE
                           (   1   4   3   4   0   0   0)
     nstep                     =          100


     celldm(1)=   7.957637  celldm(2)=   0.000000  celldm(3)=   0.000000
     celldm(4)=   0.000000  celldm(5)=   0.000000  celldm(6)=   0.000000

     crystal axes: (cart. coord. in units of alat)
               a(1) = (   1.000000   0.000000   0.000000 )  
               a(2) = (   0.000000   1.000000   0.000000 )  
               a(3) = (   0.000000   0.000000   1.000000 )  

     reciprocal axes: (cart. coord. in units 2 pi/alat)
               b(1) = (  1.000000  0.000000  0.000000 )  
               b(2) = (  0.000000  1.000000  0.000000 )  
               b(3) = (  0.000000  0.000000  1.000000 )  


     PseudoPot. # 1 for Mg read from file:
     ./Mg.upf
     MD5 check sum: 4c04d8c6e0476e83eaecaf72fa8acc4d
     Pseudo is Norm-conserving, Zval = 10.0
     Generated using ONCVPSP code by D. R. Hamann
     Using radial grid of 1510 points,  4 beta functions with: 
                l(1) =   0
                l(2) =   0
                l(3) =   1
                l(4) =   1

     PseudoPot. # 2 for O  read from file:
     ./O.upf
     MD5 check sum: 3e3f909f7470e8921608ab6b1f57bbae
     Pseudo is Norm-conserving + core correction, Zval =  6.0
     Generated using ONCVPSP code by D. R. Hamann
     Using radial grid of  936 points,  5 beta functions with: 
                l(1) =   0
                l(2) =   0
                l(3) =   1
                l(4) =   1
                l(5) =   2

     atomic species   valence    mass     pseudopotential
        Mg            10.00    24.30500     Mg( 1.00)
        O              6.00    15.99900     O ( 1.00)

     No symmetry found



   Cartesian axes

     site n.     atom                  positions (alat units)
         1           Mg  tau(   1) = (   0.0000000   0.0000000   0.0000000  )
         2           Mg  tau(   2) = (   0.0000000   0.5000000   0.5000000  )
         3           Mg  tau(   3) = (   0.5000000   0.0000000   0.5000000  )
         4           Mg  tau(   4) = (   0.5000000   0.5000000   0.0000000  )
         5           O   tau(   5) = (   0.5000000   0.5000000   0.5000000  )
         6           O   tau(   6) = (   0.5000000   0.0000000   0.0000000  )
         7           O   tau(   7) = (   0.0000000   0.5000000   0.0000000  )
         8           O   tau(   8) = (   0.0000000   0.0000000   0.5000000  )

     number of k points=    63  Gaussian smearing, width (Ry)=  0.0050
                       cart. coord. in units 2pi/alat
        k(    1) = (   0.0000000   0.0000000   0.0000000), wk =   0.0160000
        k(    2) = (   0.0000000   0.0000000   0.2000000), wk =   0.0320000
        k(    3) = (   0.0000000   0.0000000   0.4000000), wk =   0.0320000
        k(    4) = (   0.0000000   0.2000000   0.0000000), wk =   0.0320000
        k(    5) = (   0.0000000   0.2000000   0.2000000), wk =   0.0320000
        k(    6) = (   0.0000000   0.2000000   0.4000000), wk =   0.0320000
        k(    7) = (   0.0000000   0.2000000  -0.4000000), wk =   0.0320000
        k(    8) = (   0.0000000   0.2000000  -0.2000000), wk =   0.0320000
        k(    9) = (   0.0000000   0.4000000   0.0000000), wk =   0.0320000
        k(   10) = (   0.0000000   0.4000000   0.2000000), wk =   0.0320000
        k(   11) = (   0.0000000   0.4000000   0.4000000), wk =   0.0320000
        k(   12) = (   0.0000000   0.4000000  -0.4000000), wk =   0.0320000
        k(   13) = (   0.0000000   0.4000000  -0.2000000), wk =   0.0320000
        k(   14) = (   0.2000000   0.0000000   0.0000000), wk =   0.0320000
        k(   15) = (   0.2000000   0.0000000   0.2000000), wk =   0.0320000
        k(   16) = (   0.2000000   0.0000000   0.4000000), wk =   0.0320000
        k(   17) = (   0.2000000   0.0000000  -0.4000000), wk =   0.0320000
        k(   18) = (   0.2000000   0.0000000  -0.2000000), wk =   0.0320000
        k(   19) = (   0.2000000   0.2000000   0.0000000), wk =   0.0320000
        k(   20) = (   0.2000000   0.2000000   0.2000000), wk =   0.0320000
        k(   21) = (   0.2000000   0.2000000   0.4000000), wk =   0.0320000
        k(   22) = (   0.2000000   0.2000000  -0.4000000), wk =   0.0320000
        k(   23) = (   0.2000000   0.2000000  -0.2000000), wk =   0.0320000
        k(   24) = (   0.2000000   0.4000000   0.0000000), wk =   0.0320000
        k(   25) = (   0.2000000   0.4000000   0.2000000), wk =   0.0320000
        k(   26) = (   0.2000000   0.4000000   0.4000000), wk =   0.0320000
        k(   27) = (   0.2000000   0.4000000  -0.4000000), wk =   0.0320000
        k(   28) = (   0.2000000   0.4000000  -0.2000000), wk =   0.0320000
        k(   29) = (   0.2000000  -0.4000000   0.0000000), wk =   0.0320000
        k(   30) = (   0.2000000  -0.4000000   0.2000000), wk =   0.0320000
        k(   31) = (   0.2000000  -0.4000000   0.4000000), wk =   0.0320000
        k(   32) = (   0.2000000  -0.4000000  -0.4000000), wk =   0.0320000
        k(   33) = (   0.2000000  -0.4000000  -0.2000000), wk =   0.0320000
        k(   34) = (   0.2000000  -0.2000000   0.0000000), wk =   0.0320000
        k(   35) = (   0.2000000  -0.2000000   0.2000000), wk =   0.0320000
        k(   36) = (   0.2000000  -0.2000000   0.4000000), wk =   0.0320000
        k(   37) = (   0.2000000  -0.2000000  -0.4000000), wk =   0.0320000
        k(   38) = (   0.2000000  -0.2000000  -0.2000000), wk =   0.0320000
        k(   39) = (   0.4000000   0.0000000   0.0000000), wk =   0.0320000
        k(   40) = (   0.4000000   0.0000000   0.2000000), wk =   0.0320000
        k(   41) = (   0.4000000   0.0000000   0.4000000), wk =   0.0320000
        k(   42) = (   0.4000000   0.0000000  -0.4000000), wk =   0.0320000
        k(   43) = (   0.4000000   0.0000000  -0.2000000), wk =   0.0320000
        k(   44) = (   0.4000000   0.2000000   0.0000000), wk =   0.0320000
        k(   45) = (   0.4000000   0.2000000   0.2000000), wk =   0.0320000
        k(   46) = (   0.4000000   0.2000000   0.4000000), wk =   0.0320000
        k(   47) = (   0.4000000   0.2000000  -0.4000000), wk =   0.0320000
        k(   48) = (   0.4000000   0.2000000  -0.2000000), wk =   0.0320000
        k(   49) = (   0.4000000   0.4000000   0.0000000), wk =   0.0320000
        k(   50) = (   0.4000000   0.4000000   0.2000000), wk =   0.0320000
        k(   51) = (   0.4000000   0.4000000   0.4000000), wk =   0.0320000
        k(   52) = (   0.4000000   0.4000000  -0.4000000), wk =   0.0320000
        k(   53) = (   0.4000000   0.4000000  -0.2000000), wk =   0.0320000
        k(   54) = (   0.4000000  -0.4000000   0.0000000), wk =   0.0320000
        k(   55) = (   0.4000000  -0.4000000   0.2000000), wk =   0.0320000
        k(   56) = (   0.4000000  -0.4000000   0.4000000), wk =   0.0320000
        k(   57) = (   0.4000000  -0.4000000  -0.4000000), wk =   0.0320000
        k(   58) = (   0.4000000  -0.4000000  -0.2000000), wk =   0.0320000
        k(   59) = (   0.4000000  -0.2000000   0.0000000), wk =   0.0320000
        k(   60) = (   0.4000000  -0.2000000   0.2000000), wk =   0.0320000
        k(   61) = (   0.4000000  -0.2000000   0.4000000), wk =   0.0320000
        k(   62) = (   0.4000000  -0.2000000  -0.4000000), wk =   0.0320000
        k(   63) = (   0.4000000  -0.2000000  -0.2000000), wk =   0.0320000

     Dense  grid:    68051 G-vectors     FFT dimensions: (  54,  54,  54)

     Estimated max dynamical RAM per process >      29.22 MB

     Estimated total dynamical RAM >     467.47 MB

     Initial potential from superposition of free atoms

     starting charge   63.99678, renormalised to   64.00000
     Starting wfcs are   36 randomized atomic wfcs +    2 random wfcs

     total cpu time spent up to now is        1.8 secs

     Self-consistent Calculation

     iteration #  1     ecut=   100.00 Ry     beta= 0.50
     Davidson diagonalization with overlap
     ethr =  1.00E-02,  avg # of iterations =  4.0

     total cpu time spent up to now is        9.8 secs

     total energy              =    -608.03223956 Ry
     estimated scf accuracy    <       1.57336964 Ry

     iteration #  2     ecut=   100.00 Ry     beta= 0.50
     Davidson diagonalization with overlap
     ethr =  2.46E-03,  avg # of iterations =  2.2

     total cpu time spent up to now is       13.9 secs

     total energy              =    -608.48016584 Ry
     estimated scf accuracy    <       0.24132896 Ry

     iteration #  3     ecut=   100.00 Ry     beta= 0.50
     Davidson diagonalization with overlap
     ethr =  3.77E-04,  avg # of iterations =  2.2

     total cpu time spent up to now is       17.8 secs

     total energy              =    -608.51529458 Ry
     estimated scf accuracy    <       0.01286812 Ry

     iteration #  4     ecut=   100.00 Ry     beta= 0.50
     Davidson diagonalization with overlap
     ethr =  2.01E-05,  avg # of iterations =  4.1

     total cpu time spent up to now is       22.4 secs

     total energy              =    -608.51591804 Ry
     estimated scf accuracy    <       0.00171225 Ry

     iteration #  5     ecut=   100.00 Ry     beta= 0.50
     Davidson diagonalization with overlap
     ethr =  2.68E-06,  avg # of iterations =  3.9

     total cpu time spent up to now is       26.9 secs

     total energy              =    -608.51631878 Ry
     estimated scf accuracy    <       0.00005206 Ry

     iteration #  6     ecut=   100.00 Ry     beta= 0.50
     Davidson diagonalization with overlap
     ethr =  8.13E-08,  avg # of iterations =  2.1

     total cpu time spent up to now is       30.9 secs

     total energy              =    -608.51633117 Ry
     estimated scf accuracy    <       0.00000150 Ry

     iteration #  7     ecut=   100.00 Ry     beta= 0.50
     Davidson diagonalization with overlap
     ethr =  2.35E-09,  avg # of iterations =  2.9

     total cpu time spent up to now is       35.0 secs

     total energy              =    -608.51633010 Ry
     estimated scf accuracy    <       0.00000321 Ry

     iteration #  8     ecut=   100.00 Ry     beta= 0.50
     Davidson diagonalization with overlap
     ethr =  2.35E-09,  avg # of iterations =  2.5

     total cpu time spent up to now is       39.1 secs

     End of self-consistent calculation

          k = 0.0000 0.0000 0.0000 (  8409 PWs)   bands (ev):

   -64.2904 -64.2789 -64.2789 -64.2789 -31.1156 -31.1156 -31.1156 -31.0716
   -31.0716 -31.0716 -31.0716 -31.0716 -31.0716 -31.0431 -31.0431 -31.0431
    -9.1286  -7.5854  -7.5854  -7.5853   4.0215   4.0215   4.0215   6.7284
     6.7284   6.7284   6.7284   6.7284   6.7285   8.0632   8.0632   8.0632
    12.8379  17.2907  17.2907  18.0836  18.0836  18.0836

          k = 0.0000 0.0000 0.2000 (  8501 PWs)   bands (ev):

   -64.2893 -64.2800 -64.2789 -64.2789 -31.1114 -31.1114 -31.1095 -31.0758
   -31.0758 -31.0723 -31.0723 -31.0689 -31.0689 -31.0508 -31.0458 -31.0458
    -8.9846  -7.7348  -7.5636  -7.5636   4.2128   4.2128   4.2479   6.3644
     6.3644   6.5784   6.5784   6.8368   6.8368   7.3531   7.9122   7.9122
    13.6615  17.6208  17.8675  17.8675  17.9372  18.6672

          k = 0.0000 0.0000 0.4000 (  8542 PWs)   bands (ev):

   -64.2864 -64.2829 -64.2789 -64.2789 -31.1003 -31.1003 -31.0927 -31.0868
   -31.0868 -31.0735 -31.0735 -31.0703 -31.0617 -31.0617 -31.0529 -31.0529
    -8.6035  -8.1253  -7.5280  -7.5280   4.7601   4.7601   4.9403   5.5608
     5.5608   6.0583   6.3469   6.3469   7.1366   7.1366   7.5447   7.5447
    15.3077  16.9480  18.6064  19.1278  19.1278  19.9457

          k = 0.0000 0.2000 0.0000 (  8501 PWs)   bands (ev):

   -64.2893 -64.2800 -64.2789 -64.2789 -31.1114 -31.1114 -31.1095 -31.0758
   -31.0758 -31.0723 -31.0723 -31.0689 -31.0689 -31.0508 -31.0458 -31.0458
    -8.9846  -7.7348  -7.5636  -7.5635   4.2128   4.2128   4.2479   6.3644
     6.3644   6.5783   6.5784   6.8368   6.8368   7.3531   7.9122   7.9122
    13.6615  17.6208  17.8675  17.8675  17.9372  18.6672

          k = 0.0000 0.2000 0.2000 (  8512 PWs)   bands (ev):

   -64.2883 -64.2799 -64.2799 -64.2790 -31.1080 -31.1080 -31.1073 -31.0847
   -31.0729 -31.0729 -31.0682 -31.0682 -31.0670 -31.0618 -31.0486 -31.0439
    -8.8483  -7.6962  -7.6962  -7.5568   4.3404   4.3404   4.4003   5.7445
     6.4888   6.4888   6.7057   6.7559   6.7559   6.8624   7.7349   7.9490
    14.2550  18.0103  18.1463  18.3983  18.3983  19.3507

          k = 0.0000 0.2000 0.4000 (  8538 PWs)   bands (ev):

   -64.2857 -64.2825 -64.2796 -64.2793 -31.1033 -31.0972 -31.0966 -31.0953
   -31.0835 -31.0800 -31.0663 -31.0654 -31.0651 -31.0584 -31.0561 -31.0487
    -8.4905  -8.0489  -7.6163  -7.5624   4.6046   4.8051   4.9353   5.0638
     5.6579   5.7140   6.6971   6.8173   6.8340   7.1835   7.3062   7.6583
    15.6414  17.2265  18.7471  18.9614  19.1571  19.2684

          k = 0.0000 0.2000-0.4000 (  8538 PWs)   bands (ev):

   -64.2857 -64.2825 -64.2796 -64.2793 -31.1033 -31.0972 -31.0966 -31.0953
   -31.0835 -31.0800 -31.0663 -31.0654 -31.0651 -31.0584 -31.0561 -31.0487
    -8.4905  -8.0489  -7.6163  -7.5624   4.6046   4.8051   4.9353   5.0638
     5.6579   5.7140   6.6971   6.8173   6.8340   7.1835   7.3062   7.6583
    15.6414  17.2265  18.7471  18.9615  19.1571  19.2684

          k = 0.0000 0.2000-0.2000 (  8512 PWs)   bands (ev):

   -64.2883 -64.2799 -64.2799 -64.2790 -31.1080 -31.1080 -31.1073 -31.0847
   -31.0729 -31.0729 -31.0682 -31.0682 -31.0670 -31.0618 -31.0486 -31.0439
    -8.8483  -7.6962  -7.6962  -7.5568   4.3404   4.3404   4.4003   5.7445
     6.4888   6.4888   6.7057   6.7559   6.7559   6.8624   7.7349   7.9490
    14.2550  18.0103  18.1463  18.3983  18.3983  19.3508

          k = 0.0000 0.4000 0.0000 (  8542 PWs)   bands (ev):

   -64.2864 -64.2829 -64.2789 -64.2789 -31.1003 -31.1003 -31.0927 -31.0868
   -31.0868 -31.0735 -31.0735 -31.0703 -31.0617 -31.0617 -31.0529 -31.0529
    -8.6035  -8.1253  -7.5281  -7.5280   4.7601   4.7601   4.9403   5.5608
     5.5608   6.0583   6.3468   6.3469   7.1366   7.1366   7.5447   7.5447
    15.3077  16.9480  18.6064  19.1278  19.1278  19.9457

          k = 0.0000 0.4000 0.2000 (  8538 PWs)   bands (ev):

   -64.2857 -64.2825 -64.2796 -64.2793 -31.1033 -31.0972 -31.0966 -31.0953
   -31.0835 -31.0800 -31.0663 -31.0654 -31.0651 -31.0584 -31.0561 -31.0487
    -8.4905  -8.0489  -7.6163  -7.5624   4.6046   4.8051   4.9353   5.0638
     5.6579   5.7140   6.6971   6.8173   6.8340   7.1835   7.3062   7.6583
    15.6414  17.2265  18.7471  19.1571  19.2684  20.2428

          k = 0.0000 0.4000 0.4000 (  8510 PWs)   bands (ev):

   -64.2838 -64.2815 -64.2815 -64.2803 -31.1033 -31.1033 -31.1031 -31.0945
   -31.0869 -31.0750 -31.0750 -31.0645 -31.0568 -31.0549 -31.0549 -31.0480
    -8.2019  -7.8654  -7.8654  -7.6776   4.5832   4.5832   4.6169   4.9879
     5.4318   6.1434   6.1434   6.7441   7.2117   7.2690   7.2690   7.6309
    16.5379  17.7945  17.7945  18.2789  19.6317  20.0774

          k = 0.0000 0.4000-0.4000 (  8510 PWs)   bands (ev):

   -64.2838 -64.2815 -64.2815 -64.2803 -31.1033 -31.1033 -31.1031 -31.0945
   -31.0869 -31.0750 -31.0750 -31.0645 -31.0568 -31.0549 -31.0549 -31.0480
    -8.2019  -7.8654  -7.8654  -7.6776   4.5832   4.5832   4.6169   4.9879
     5.4318   6.1434   6.1434   6.7441   7.2117   7.2690   7.2690   7.6309
    16.5379  17.7945  17.7945  18.2789  19.6317  20.0773

          k = 0.0000 0.4000-0.2000 (  8538 PWs)   bands (ev):

   -64.2857 -64.2825 -64.2796 -64.2793 -31.1033 -31.0972 -31.0966 -31.0953
   -31.0835 -31.0800 -31.0663 -31.0654 -31.0651 -31.0584 -31.0561 -31.0487
    -8.4905  -8.0489  -7.6163  -7.5624   4.6046   4.8051   4.9353   5.0638
     5.6579   5.7140   6.6971   6.8173   6.8340   7.1835   7.3062   7.6583
    15.6414  17.2265  18.7471  18.9615  19.1571  19.2684

          k = 0.2000 0.0000 0.0000 (  8501 PWs)   bands (ev):

   -64.2893 -64.2800 -64.2789 -64.2789 -31.1114 -31.1114 -31.1095 -31.0758
   -31.0758 -31.0723 -31.0723 -31.0689 -31.0689 -31.0508 -31.0458 -31.0458
    -8.9846  -7.7348  -7.5636  -7.5636   4.2128   4.2128   4.2479   6.3644
     6.3644   6.5784   6.5784   6.8368   6.8368   7.3531   7.9122   7.9122
    13.6615  17.6208  17.8675  17.8675  17.9372  18.6672

          k = 0.2000 0.0000 0.2000 (  8512 PWs)   bands (ev):

   -64.2883 -64.2799 -64.2799 -64.2790 -31.1080 -31.1080 -31.1073 -31.0847
   -31.0729 -31.0729 -31.0682 -31.0682 -31.0670 -31.0618 -31.0486 -31.0439
    -8.8483  -7.6962  -7.6961  -7.5568   4.3404   4.3404   4.4003   5.7445
     6.4888   6.4889   6.7057   6.7559   6.7559   6.8624   7.7349   7.9490
    14.2550  18.0103  18.1462  18.1463  18.3983  18.3983

          k = 0.2000 0.0000 0.4000 (  8538 PWs)   bands (ev):

   -64.2857 -64.2825 -64.2796 -64.2793 -31.1033 -31.0972 -31.0966 -31.0953
   -31.0835 -31.0800 -31.0663 -31.0654 -31.0651 -31.0584 -31.0561 -31.0487
    -8.4905  -8.0489  -7.6163  -7.5624   4.6046   4.8051   4.9353   5.0638
     5.6579   5.7140   6.6971   6.8173   6.8340   7.1835   7.3062   7.6583
    15.6414  17.2265  18.7471  19.1571  19.2684  20.2432

          k = 0.2000 0.0000-0.4000 (  8538 PWs)   bands (ev):

   -64.2857 -64.2825 -64.2796 -64.2793 -31.1033 -31.0972 -31.0966 -31.0953
   -31.0835 -31.0800 -31.0663 -31.0654 -31.0651 -31.0584 -31.0561 -31.0487
    -8.4905  -8.0489  -7.6163  -7.5624   4.6046   4.8051   4.9353   5.0638
     5.6579   5.7140   6.6971   6.8173   6.8340   7.1835   7.3062   7.6583
    15.6414  17.2265  18.7471  18.9614  19.1571  19.2684

          k = 0.2000 0.0000-0.2000 (  8512 PWs)   bands (ev):

   -64.2883 -64.2799 -64.2799 -64.2790 -31.1080 -31.1080 -31.1073 -31.0847
   -31.0729 -31.0729 -31.0682 -31.0682 -31.0670 -31.0618 -31.0486 -31.0439
    -8.8483  -7.6962  -7.6961  -7.5568   4.3404   4.3404   4.4003   5.7445
     6.4888   6.4889   6.7057   6.7559   6.7559   6.8624   7.7349   7.9490
    14.2550  18.0103  18.1462  18.1463  18.3983  18.3983

          k = 0.2000 0.2000 0.0000 (  8512 PWs)   bands (ev):

   -64.2883 -64.2799 -64.2799 -64.2790 -31.1080 -31.1080 -31.1073 -31.0847
   -31.0729 -31.0729 -31.0682 -31.0682 -31.0670 -31.0618 -31.0486 -31.0439
    -8.8483  -7.6962  -7.6961  -7.5568   4.3404   4.3404   4.4003   5.7445
     6.4888   6.4889   6.7057   6.7559   6.7559   6.8624   7.7349   7.9490
    14.2550  18.0103  18.1463  18.1463  18.3983  18.3983

          k = 0.2000 0.2000 0.2000 (  8517 PWs)   bands (ev):

   -64.2874 -64.2799 -64.2799 -64.2799 -31.1085 -31.1085 -31.1085 -31.0765
   -31.0764 -31.0764 -31.0728 -31.0648 -31.0648 -31.0648 -31.0461 -31.0461
    -8.7203  -7.6719  -7.6719  -7.6718   4.3531   4.3531   4.3531   6.1068
     6.1091   6.1092   6.1092   6.9532   6.9533   6.9533   7.8301   7.8301
    14.6515  17.9659  17.9659  17.9659  19.2158  19.2158

          k = 0.2000 0.2000 0.4000 (  8510 PWs)   bands (ev):

   -64.2851 -64.2822 -64.2799 -64.2799 -31.1096 -31.1096 -31.1041 -31.0906
   -31.0789 -31.0789 -31.0623 -31.0623 -31.0616 -31.0590 -31.0518 -31.0499
    -8.3874  -7.9848  -7.6322  -7.6321   4.3411   4.3411   4.5446   5.1844
     5.8452   5.8453   6.8372   6.9496   6.9497   7.2024   7.5215   7.5360
    15.7320  17.1039  18.2408  18.2408  19.4441  20.0339

          k = 0.2000 0.2000-0.4000 (  8510 PWs)   bands (ev):

   -64.2851 -64.2822 -64.2799 -64.2799 -31.1096 -31.1096 -31.1041 -31.0906
   -31.0789 -31.0789 -31.0623 -31.0623 -31.0616 -31.0590 -31.0518 -31.0499
    -8.3874  -7.9848  -7.6322  -7.6321   4.3411   4.3411   4.5446   5.1844
     5.8452   5.8453   6.8372   6.9496   6.9497   7.2024   7.5215   7.5360
    15.7320  17.1039  18.2408  18.2408  19.4441  20.0339

          k = 0.2000 0.2000-0.2000 (  8517 PWs)   bands (ev):

   -64.2874 -64.2799 -64.2799 -64.2799 -31.1085 -31.1085 -31.1085 -31.0765
   -31.0764 -31.0764 -31.0728 -31.0648 -31.0648 -31.0648 -31.0461 -31.0461
    -8.7203  -7.6719  -7.6719  -7.6718   4.3531   4.3531   4.3531   6.1068
     6.1091   6.1092   6.1092   6.9532   6.9533   6.9533   7.8301   7.8301
    14.6515  17.9659  17.9659  17.9659  19.2158  19.2158

          k = 0.2000 0.4000 0.0000 (  8538 PWs)   bands (ev):

   -64.2857 -64.2825 -64.2796 -64.2793 -31.1033 -31.0972 -31.0966 -31.0953
   -31.0835 -31.0800 -31.0663 -31.0654 -31.0651 -31.0584 -31.0561 -31.0487
    -8.4905  -8.0489  -7.6163  -7.5624   4.6046   4.8051   4.9353   5.0638
     5.6579   5.7140   6.6971   6.8173   6.8340   7.1835   7.3062   7.6583
    15.6414  17.2265  18.7471  19.1571  19.2684  20.2428

          k = 0.2000 0.4000 0.2000 (  8510 PWs)   bands (ev):

   -64.2851 -64.2822 -64.2799 -64.2799 -31.1096 -31.1096 -31.1041 -31.0906
   -31.0789 -31.0789 -31.0623 -31.0623 -31.0616 -31.0590 -31.0518 -31.0499
    -8.3874  -7.9848  -7.6322  -7.6321   4.3411   4.3411   4.5446   5.1844
     5.8452   5.8453   6.8372   6.9496   6.9497   7.2024   7.5215   7.5360
    15.7320  17.1039  18.2408  18.2408  19.4441  20.0339

          k = 0.2000 0.4000 0.4000 (  8499 PWs)   bands (ev):

   -64.2835 -64.2815 -64.2815 -64.2806 -31.1157 -31.1135 -31.1135 -31.1059
   -31.0720 -31.0655 -31.0655 -31.0567 -31.0560 -31.0548 -31.0548 -31.0488
    -8.1287  -7.8373  -7.8373  -7.7009   4.0448   4.1381   4.1381   4.4786
     6.1921   6.6032   6.6032   7.1653   7.2498   7.2895   7.2895   7.5890
    16.2058  17.1556  17.1556  17.5297  20.1205  20.3550

          k = 0.2000 0.4000-0.4000 (  8499 PWs)   bands (ev):

   -64.2835 -64.2815 -64.2815 -64.2806 -31.1157 -31.1135 -31.1135 -31.1059
   -31.0720 -31.0655 -31.0655 -31.0567 -31.0560 -31.0548 -31.0548 -31.0488
    -8.1287  -7.8373  -7.8373  -7.7009   4.0448   4.1381   4.1381   4.4786
     6.1921   6.6032   6.6032   7.1653   7.2498   7.2895   7.2895   7.5890
    16.2058  17.1556  17.1556  17.5297  20.1207  20.3554

          k = 0.2000 0.4000-0.2000 (  8510 PWs)   bands (ev):

   -64.2851 -64.2822 -64.2799 -64.2799 -31.1096 -31.1096 -31.1041 -31.0906
   -31.0789 -31.0789 -31.0623 -31.0623 -31.0616 -31.0590 -31.0518 -31.0499
    -8.3874  -7.9848  -7.6322  -7.6321   4.3411   4.3411   4.5446   5.1844
     5.8452   5.8453   6.8372   6.9496   6.9497   7.2024   7.5215   7.5360
    15.7320  17.1039  18.2408  18.2408  19.4441  20.0339

          k = 0.2000-0.4000 0.0000 (  8538 PWs)   bands (ev):

   -64.2857 -64.2825 -64.2796 -64.2793 -31.1033 -31.0972 -31.0966 -31.0953
   -31.0835 -31.0800 -31.0663 -31.0654 -31.0651 -31.0584 -31.0561 -31.0487
    -8.4905  -8.0489  -7.6163  -7.5624   4.6046   4.8051   4.9353   5.0638
     5.6579   5.7140   6.6971   6.8173   6.8340   7.1835   7.3062   7.6583
    15.6414  17.2265  18.7471  18.9615  19.1571  19.2684

          k = 0.2000-0.4000 0.2000 (  8510 PWs)   bands (ev):

   -64.2851 -64.2822 -64.2799 -64.2799 -31.1096 -31.1096 -31.1041 -31.0906
   -31.0789 -31.0789 -31.0623 -31.0623 -31.0616 -31.0590 -31.0518 -31.0499
    -8.3874  -7.9848  -7.6322  -7.6321   4.3411   4.3411   4.5446   5.1844
     5.8452   5.8453   6.8372   6.9496   6.9497   7.2024   7.5215   7.5360
    15.7320  17.1039  18.2408  18.2408  19.4441  20.0339

          k = 0.2000-0.4000 0.4000 (  8499 PWs)   bands (ev):

   -64.2835 -64.2815 -64.2815 -64.2806 -31.1157 -31.1135 -31.1135 -31.1059
   -31.0720 -31.0655 -31.0655 -31.0567 -31.0560 -31.0548 -31.0548 -31.0488
    -8.1287  -7.8373  -7.8373  -7.7009   4.0448   4.1381   4.1381   4.4786
     6.1921   6.6032   6.6032   7.1653   7.2498   7.2895   7.2895   7.5890
    16.2058  17.1556  17.1556  17.5297  20.1206  20.3550

          k = 0.2000-0.4000-0.4000 (  8499 PWs)   bands (ev):

   -64.2835 -64.2815 -64.2815 -64.2806 -31.1157 -31.1135 -31.1135 -31.1059
   -31.0720 -31.0655 -31.0655 -31.0567 -31.0560 -31.0548 -31.0548 -31.0488
    -8.1287  -7.8373  -7.8373  -7.7009   4.0448   4.1381   4.1381   4.4786
     6.1921   6.6032   6.6032   7.1653   7.2498   7.2895   7.2895   7.5890
    16.2058  17.1556  17.1556  17.5297  20.1206  20.3552

          k = 0.2000-0.4000-0.2000 (  8510 PWs)   bands (ev):

   -64.2851 -64.2822 -64.2799 -64.2799 -31.1096 -31.1096 -31.1041 -31.0906
   -31.0789 -31.0789 -31.0623 -31.0623 -31.0616 -31.0590 -31.0518 -31.0499
    -8.3874  -7.9848  -7.6322  -7.6321   4.3411   4.3411   4.5446   5.1844
     5.8452   5.8453   6.8372   6.9496   6.9497   7.2024   7.5215   7.5360
    15.7320  17.1039  18.2408  18.2408  19.4441  20.0339

          k = 0.2000-0.2000 0.0000 (  8512 PWs)   bands (ev):

   -64.2883 -64.2799 -64.2799 -64.2790 -31.1080 -31.1080 -31.1073 -31.0847
   -31.0729 -31.0729 -31.0682 -31.0682 -31.0670 -31.0618 -31.0486 -31.0439
    -8.8483  -7.6962  -7.6961  -7.5568   4.3404   4.3404   4.4003   5.7445
     6.4888   6.4889   6.7057   6.7559   6.7559   6.8624   7.7349   7.9490
    14.2550  18.0103  18.1463  18.1463  18.3983  18.3983

          k = 0.2000-0.2000 0.2000 (  8517 PWs)   bands (ev):

   -64.2874 -64.2799 -64.2799 -64.2799 -31.1085 -31.1085 -31.1085 -31.0765
   -31.0764 -31.0764 -31.0728 -31.0648 -31.0648 -31.0648 -31.0461 -31.0461
    -8.7203  -7.6719  -7.6719  -7.6718   4.3531   4.3531   4.3531   6.1068
     6.1091   6.1092   6.1092   6.9532   6.9533   6.9533   7.8301   7.8301
    14.6515  17.9659  17.9659  17.9659  19.2158  19.2158

          k = 0.2000-0.2000 0.4000 (  8510 PWs)   bands (ev):

   -64.2851 -64.2822 -64.2799 -64.2799 -31.1096 -31.1096 -31.1041 -31.0906
   -31.0789 -31.0789 -31.0623 -31.0623 -31.0616 -31.0590 -31.0518 -31.0499
    -8.3874  -7.9848  -7.6322  -7.6321   4.3411   4.3411   4.5446   5.1844
     5.8452   5.8453   6.8372   6.9496   6.9497   7.2025   7.5215   7.5360
    15.7320  17.1039  18.2408  18.2408  19.4441  20.0339

          k = 0.2000-0.2000-0.4000 (  8510 PWs)   bands (ev):

   -64.2851 -64.2822 -64.2799 -64.2799 -31.1096 -31.1096 -31.1041 -31.0906
   -31.0789 -31.0789 -31.0623 -31.0623 -31.0616 -31.0590 -31.0518 -31.0499
    -8.3874  -7.9848  -7.6322  -7.6321   4.3411   4.3411   4.5446   5.1844
     5.8452   5.8453   6.8372   6.9496   6.9497   7.2025   7.5215   7.5360
    15.7320  17.1039  18.2408  18.2408  19.4441  20.0339

          k = 0.2000-0.2000-0.2000 (  8517 PWs)   bands (ev):

   -64.2874 -64.2799 -64.2799 -64.2799 -31.1085 -31.1085 -31.1085 -31.0765
   -31.0764 -31.0764 -31.0728 -31.0648 -31.0648 -31.0648 -31.0461 -31.0461
    -8.7203  -7.6719  -7.6719  -7.6718   4.3531   4.3531   4.3531   6.1068
     6.1091   6.1092   6.1092   6.9532   6.9533   6.9533   7.8301   7.8301
    14.6515  17.9659  17.9659  17.9659  19.2158  19.2158

          k = 0.4000 0.0000 0.0000 (  8542 PWs)   bands (ev):

   -64.2864 -64.2829 -64.2789 -64.2789 -31.1003 -31.1003 -31.0927 -31.0868
   -31.0868 -31.0735 -31.0735 -31.0703 -31.0617 -31.0617 -31.0529 -31.0529
    -8.6035  -8.1253  -7.5280  -7.5280   4.7601   4.7601   4.9403   5.5608
     5.5608   6.0583   6.3469   6.3469   7.1366   7.1366   7.5447   7.5447
    15.3077  16.9480  18.6064  19.1278  19.9456  19.9457

          k = 0.4000 0.0000 0.2000 (  8538 PWs)   bands (ev):

   -64.2857 -64.2825 -64.2796 -64.2793 -31.1033 -31.0972 -31.0966 -31.0953
   -31.0835 -31.0800 -31.0663 -31.0654 -31.0651 -31.0584 -31.0561 -31.0487
    -8.4905  -8.0489  -7.6163  -7.5624   4.6046   4.8051   4.9353   5.0638
     5.6579   5.7140   6.6971   6.8173   6.8340   7.1835   7.3062   7.6583
    15.6414  17.2265  18.7471  18.9614  19.1571  19.2684

          k = 0.4000 0.0000 0.4000 (  8510 PWs)   bands (ev):

   -64.2838 -64.2815 -64.2815 -64.2803 -31.1033 -31.1032 -31.1031 -31.0945
   -31.0869 -31.0750 -31.0750 -31.0645 -31.0568 -31.0549 -31.0549 -31.0480
    -8.2019  -7.8655  -7.8653  -7.6776   4.5832   4.5833   4.6169   4.9879
     5.4318   6.1433   6.1434   6.7441   7.2117   7.2689   7.2690   7.6309
    16.5379  17.7945  17.7945  18.2789  19.6316  19.6318

          k = 0.4000 0.0000-0.4000 (  8510 PWs)   bands (ev):

   -64.2838 -64.2815 -64.2815 -64.2803 -31.1033 -31.1032 -31.1031 -31.0945
   -31.0869 -31.0750 -31.0750 -31.0645 -31.0568 -31.0549 -31.0549 -31.0480
    -8.2019  -7.8655  -7.8653  -7.6776   4.5832   4.5833   4.6169   4.9879
     5.4318   6.1433   6.1434   6.7441   7.2117   7.2689   7.2690   7.6309
    16.5379  17.7945  17.7945  18.2789  19.6318  20.0768

          k = 0.4000 0.0000-0.2000 (  8538 PWs)   bands (ev):

   -64.2857 -64.2825 -64.2796 -64.2793 -31.1033 -31.0972 -31.0966 -31.0953
   -31.0835 -31.0800 -31.0663 -31.0654 -31.0651 -31.0584 -31.0561 -31.0487
    -8.4905  -8.0489  -7.6163  -7.5624   4.6046   4.8051   4.9353   5.0638
     5.6579   5.7140   6.6971   6.8173   6.8340   7.1835   7.3062   7.6583
    15.6414  17.2265  18.7471  18.9615  19.1571  19.2684

          k = 0.4000 0.2000 0.0000 (  8538 PWs)   bands (ev):

   -64.2857 -64.2825 -64.2796 -64.2793 -31.1033 -31.0972 -31.0966 -31.0953
   -31.0835 -31.0800 -31.0663 -31.0654 -31.0651 -31.0584 -31.0561 -31.0487
    -8.4905  -8.0489  -7.6163  -7.5624   4.6046   4.8051   4.9353   5.0638
     5.6579   5.7140   6.6971   6.8173   6.8340   7.1835   7.3062   7.6583
    15.6414  17.2265  18.7471  19.1572  19.2683  20.2428

          k = 0.4000 0.2000 0.2000 (  8510 PWs)   bands (ev):

   -64.2851 -64.2822 -64.2799 -64.2799 -31.1096 -31.1096 -31.1041 -31.0906
   -31.0789 -31.0789 -31.0623 -31.0623 -31.0616 -31.0590 -31.0518 -31.0499
    -8.3874  -7.9848  -7.6321  -7.6321   4.3411   4.3411   4.5446   5.1844
     5.8453   5.8453   6.8372   6.9496   6.9496   7.2024   7.5215   7.5360
    15.7320  17.1039  18.2408  18.2408  19.4441  20.0339

          k = 0.4000 0.2000 0.4000 (  8499 PWs)   bands (ev):

   -64.2835 -64.2815 -64.2815 -64.2806 -31.1157 -31.1135 -31.1135 -31.1059
   -31.0720 -31.0655 -31.0654 -31.0567 -31.0560 -31.0548 -31.0548 -31.0488
    -8.1287  -7.8374  -7.8373  -7.7009   4.0448   4.1381   4.1381   4.4786
     6.1921   6.6031   6.6032   7.1653   7.2498   7.2895   7.2896   7.5890
    16.2058  17.1556  17.1556  17.5297  20.1206  20.3539

          k = 0.4000 0.2000-0.4000 (  8499 PWs)   bands (ev):

   -64.2835 -64.2815 -64.2815 -64.2806 -31.1157 -31.1135 -31.1135 -31.1059
   -31.0720 -31.0655 -31.0654 -31.0567 -31.0560 -31.0548 -31.0548 -31.0488
    -8.1287  -7.8374  -7.8373  -7.7009   4.0448   4.1381   4.1381   4.4786
     6.1921   6.6031   6.6032   7.1653   7.2498   7.2895   7.2896   7.5890
    16.2058  17.1556  17.1556  17.5297  20.1206  20.3554

          k = 0.4000 0.2000-0.2000 (  8510 PWs)   bands (ev):

   -64.2851 -64.2822 -64.2799 -64.2799 -31.1096 -31.1096 -31.1041 -31.0906
   -31.0789 -31.0789 -31.0623 -31.0623 -31.0616 -31.0590 -31.0518 -31.0499
    -8.3874  -7.9848  -7.6321  -7.6321   4.3411   4.3411   4.5446   5.1844
     5.8453   5.8453   6.8372   6.9496   6.9496   7.2024   7.5215   7.5360
    15.7320  17.1039  18.2408  18.2408  19.4441  20.0339

          k = 0.4000 0.4000 0.0000 (  8510 PWs)   bands (ev):

   -64.2838 -64.2815 -64.2815 -64.2803 -31.1033 -31.1032 -31.1031 -31.0945
   -31.0869 -31.0750 -31.0750 -31.0645 -31.0568 -31.0549 -31.0549 -31.0480
    -8.2019  -7.8654  -7.8654  -7.6776   4.5832   4.5833   4.6169   4.9879
     5.4318   6.1434   6.1434   6.7441   7.2117   7.2690   7.2690   7.6309
    16.5379  17.7945  17.7945  18.2789  19.6317  20.0773

          k = 0.4000 0.4000 0.2000 (  8499 PWs)   bands (ev):

   -64.2835 -64.2815 -64.2815 -64.2806 -31.1157 -31.1135 -31.1135 -31.1059
   -31.0720 -31.0655 -31.0655 -31.0567 -31.0560 -31.0548 -31.0548 -31.0488
    -8.1287  -7.8374  -7.8373  -7.7009   4.0448   4.1381   4.1381   4.4786
     6.1921   6.6032   6.6032   7.1653   7.2498   7.2895   7.2895   7.5890
    16.2058  17.1556  17.1556  17.5297  20.1207  20.3553

          k = 0.4000 0.4000 0.4000 (  8465 PWs)   bands (ev):

   -64.2826 -64.2815 -64.2815 -64.2815 -31.1246 -31.1246 -31.1246 -31.1205
   -31.0565 -31.0565 -31.0565 -31.0537 -31.0537 -31.0537 -31.0510 -31.0510
    -7.9569  -7.7913  -7.7913  -7.7912   3.6472   3.6473   3.6473   3.8283
     7.0930   7.0931   7.0931   7.3514   7.3514   7.3515   7.4810   7.4810
    15.9512  16.4583  16.4583  16.4583  20.5584  20.5585

          k = 0.4000 0.4000-0.4000 (  8465 PWs)   bands (ev):

   -64.2826 -64.2815 -64.2815 -64.2815 -31.1246 -31.1246 -31.1246 -31.1205
   -31.0565 -31.0565 -31.0565 -31.0537 -31.0537 -31.0537 -31.0510 -31.0510
    -7.9569  -7.7913  -7.7913  -7.7912   3.6472   3.6473   3.6473   3.8283
     7.0930   7.0931   7.0931   7.3514   7.3514   7.3515   7.4810   7.4810
    15.9512  16.4583  16.4583  16.4583  20.5584  20.5585

          k = 0.4000 0.4000-0.2000 (  8499 PWs)   bands (ev):

   -64.2835 -64.2815 -64.2815 -64.2806 -31.1157 -31.1135 -31.1135 -31.1059
   -31.0720 -31.0655 -31.0655 -31.0567 -31.0560 -31.0548 -31.0548 -31.0488
    -8.1287  -7.8374  -7.8373  -7.7009   4.0448   4.1381   4.1381   4.4786
     6.1921   6.6032   6.6032   7.1653   7.2498   7.2895   7.2895   7.5890
    16.2058  17.1556  17.1556  17.5297  20.1206  20.3554

          k = 0.4000-0.4000 0.0000 (  8510 PWs)   bands (ev):

   -64.2838 -64.2815 -64.2815 -64.2803 -31.1033 -31.1032 -31.1031 -31.0945
   -31.0869 -31.0750 -31.0750 -31.0645 -31.0568 -31.0549 -31.0549 -31.0480
    -8.2019  -7.8654  -7.8654  -7.6776   4.5832   4.5833   4.6169   4.9879
     5.4318   6.1434   6.1434   6.7441   7.2117   7.2690   7.2690   7.6309
    16.5379  17.7945  17.7945  18.2789  19.6319  20.0774

          k = 0.4000-0.4000 0.2000 (  8499 PWs)   bands (ev):

   -64.2835 -64.2815 -64.2815 -64.2806 -31.1157 -31.1135 -31.1135 -31.1059
   -31.0720 -31.0655 -31.0655 -31.0567 -31.0560 -31.0548 -31.0548 -31.0488
    -8.1287  -7.8374  -7.8373  -7.7009   4.0448   4.1381   4.1381   4.4786
     6.1921   6.6032   6.6032   7.1653   7.2498   7.2895   7.2895   7.5890
    16.2058  17.1556  17.1556  17.5297  20.1209  20.3554

          k = 0.4000-0.4000 0.4000 (  8465 PWs)   bands (ev):

   -64.2826 -64.2815 -64.2815 -64.2815 -31.1246 -31.1246 -31.1246 -31.1205
   -31.0565 -31.0565 -31.0565 -31.0537 -31.0537 -31.0537 -31.0510 -31.0510
    -7.9569  -7.7913  -7.7913  -7.7912   3.6472   3.6473   3.6473   3.8283
     7.0930   7.0931   7.0931   7.3514   7.3514   7.3515   7.4810   7.4810
    15.9512  16.4583  16.4583  16.4583  20.5584  20.5585

          k = 0.4000-0.4000-0.4000 (  8465 PWs)   bands (ev):

   -64.2826 -64.2815 -64.2815 -64.2815 -31.1246 -31.1246 -31.1246 -31.1205
   -31.0565 -31.0565 -31.0565 -31.0537 -31.0537 -31.0537 -31.0510 -31.0510
    -7.9569  -7.7913  -7.7913  -7.7912   3.6472   3.6473   3.6473   3.8283
     7.0930   7.0931   7.0931   7.3514   7.3514   7.3515   7.4810   7.4810
    15.9512  16.4583  16.4583  16.4583  20.5584  20.5585

          k = 0.4000-0.4000-0.2000 (  8499 PWs)   bands (ev):

   -64.2835 -64.2815 -64.2815 -64.2806 -31.1157 -31.1135 -31.1135 -31.1059
   -31.0720 -31.0655 -31.0655 -31.0567 -31.0560 -31.0548 -31.0548 -31.0488
    -8.1287  -7.8374  -7.8373  -7.7009   4.0448   4.1381   4.1381   4.4786
     6.1921   6.6032   6.6032   7.1653   7.2498   7.2895   7.2895   7.5890
    16.2058  17.1556  17.1556  17.5297  20.1205  20.3553

          k = 0.4000-0.2000 0.0000 (  8538 PWs)   bands (ev):

   -64.2857 -64.2825 -64.2796 -64.2793 -31.1033 -31.0972 -31.0966 -31.0953
   -31.0835 -31.0800 -31.0663 -31.0654 -31.0651 -31.0584 -31.0561 -31.0487
    -8.4905  -8.0489  -7.6163  -7.5624   4.6046   4.8051   4.9353   5.0638
     5.6579   5.7140   6.6971   6.8173   6.8340   7.1835   7.3062   7.6583
    15.6414  17.2265  18.7471  18.9614  19.1571  19.2684

          k = 0.4000-0.2000 0.2000 (  8510 PWs)   bands (ev):

   -64.2851 -64.2822 -64.2799 -64.2799 -31.1096 -31.1096 -31.1041 -31.0906
   -31.0789 -31.0789 -31.0623 -31.0623 -31.0616 -31.0590 -31.0518 -31.0499
    -8.3874  -7.9848  -7.6321  -7.6321   4.3411   4.3411   4.5446   5.1844
     5.8453   5.8453   6.8372   6.9496   6.9496   7.2024   7.5215   7.5360
    15.7320  17.1039  18.2408  18.2408  19.4441  20.0339

          k = 0.4000-0.2000 0.4000 (  8499 PWs)   bands (ev):

   -64.2835 -64.2815 -64.2815 -64.2806 -31.1157 -31.1135 -31.1135 -31.1059
   -31.0720 -31.0655 -31.0654 -31.0567 -31.0560 -31.0548 -31.0548 -31.0488
    -8.1287  -7.8374  -7.8373  -7.7009   4.0448   4.1381   4.1381   4.4786
     6.1921   6.6031   6.6032   7.1653   7.2498   7.2895   7.2896   7.5890
    16.2058  17.1556  17.1556  17.5297  20.1206  20.3554

          k = 0.4000-0.2000-0.4000 (  8499 PWs)   bands (ev):

   -64.2835 -64.2815 -64.2815 -64.2806 -31.1157 -31.1135 -31.1135 -31.1059
   -31.0720 -31.0655 -31.0654 -31.0567 -31.0560 -31.0548 -31.0548 -31.0488
    -8.1287  -7.8374  -7.8373  -7.7009   4.0448   4.1381   4.1381   4.4786
     6.1921   6.6031   6.6032   7.1653   7.2498   7.2895   7.2896   7.5890
    16.2058  17.1556  17.1556  17.5297  20.1210  20.3534

          k = 0.4000-0.2000-0.2000 (  8510 PWs)   bands (ev):

   -64.2851 -64.2822 -64.2799 -64.2799 -31.1096 -31.1096 -31.1041 -31.0906
   -31.0789 -31.0789 -31.0623 -31.0623 -31.0616 -31.0590 -31.0518 -31.0499
    -8.3874  -7.9848  -7.6321  -7.6321   4.3411   4.3411   4.5446   5.1844
     5.8453   5.8453   6.8372   6.9496   6.9496   7.2024   7.5215   7.5360
    15.7320  17.1039  18.2408  18.2408  19.4441  20.0339

     the Fermi energy is    10.0544 ev

!    total energy              =    -608.51633070 Ry
     estimated scf accuracy    <       0.00000002 Ry
     smearing contrib. (-TS)   =      -0.00000000 Ry
     internal energy E=F+TS    =    -608.51633070 Ry

     The total energy is F=E-TS. E is the sum of the following terms:
     one-electron contribution =    -297.28485513 Ry
     hartree contribution      =     166.02663794 Ry
     xc contribution           =     -97.98764698 Ry
     ewald contribution        =    -379.16241501 Ry
     DFT-D3 Dispersion         =      -0.10805152 Ry

     convergence has been achieved in   8 iterations

     Forces acting on atoms (cartesian axes, Ry/au):

     atom    1 type  1   force =     0.00000019    0.00000064   -0.00000025
     atom    2 type  1   force =     0.00000006    0.00000052   -0.00000001
     atom    3 type  1   force =    -0.00000013    0.00000001   -0.00000018
     atom    4 type  1   force =    -0.00000007   -0.00000112    0.00000051
     atom    5 type  2   force =    -0.00000020    0.00000007   -0.00000054
     atom    6 type  2   force =     0.00000009    0.00000073    0.00000016
     atom    7 type  2   force =    -0.00000012   -0.00000046    0.00000006
     atom    8 type  2   force =     0.00000019   -0.00000039    0.00000026

     Total force =     0.000002     Total SCF correction =     0.000016
     SCF correction compared to forces is large: reduce conv_thr to get better values


     Computing stress (Cartesian axis) and pressure

          total   stress  (Ry/bohr**3)                   (kbar)     P=       12.04
   0.00008183   0.00000000   0.00000000           12.04        0.00        0.00
   0.00000000   0.00008183  -0.00000000            0.00       12.04       -0.00
   0.00000000  -0.00000000   0.00008183            0.00       -0.00       12.04


     BFGS Geometry Optimization

     number of scf cycles    =   1
     number of bfgs steps    =   0

     enthalpy new            =    -608.2594177971 Ry

     new trust radius        =       0.0480396609 bohr
     new conv_thr            =       0.0000010000 Ry

     new unit-cell volume =    487.90590 a.u.^3 (    72.30019 Ang^3 )
     density =      3.70269 g/cm^3

CELL_PARAMETERS (angstrom)
   4.165941544   0.000000098   0.000000009
   0.000000098   4.165941354  -0.000000077
   0.000000009  -0.000000077   4.165941262

ATOMIC_POSITIONS (angstrom)
Mg            0.0000001017        0.0000003364       -0.0000001318
Mg            0.0000000851        2.0829709089        2.0829705851
Mg            2.0829707067        0.0000000143        2.0829705400
Mg            2.0829707842        2.0829701407        0.0000002340
O             2.0829707184        2.0829707239        2.0829703152
O             2.0829708166        0.0000004326        0.0000000864
O            -0.0000000150        2.0829704367       -0.0000000095
O             0.0000001038       -0.0000002412        2.0829707690


     NEW-OLD atomic charge density approx. for the potential
     extrapolated charge   61.90090, renormalised to   64.00000

     total cpu time spent up to now is       49.9 secs

     Self-consistent Calculation

     iteration #  1     ecut=   100.00 Ry     beta= 0.50
     Davidson diagonalization with overlap
     ethr =  1.00E-06,  avg # of iterations =  8.0

     total cpu time spent up to now is       60.9 secs

     total energy              =    -608.37199540 Ry
     estimated scf accuracy    <       0.08512196 Ry

     iteration #  2     ecut=   100.00 Ry     beta= 0.50
     Davidson diagonalization with overlap
     ethr =  1.33E-04,  avg # of iterations =  3.1

     total cpu time spent up to now is       66.2 secs

     total energy              =    -608.51468981 Ry
     estimated scf accuracy    <       0.10916990 Ry

     iteration #  3     ecut=   100.00 Ry     beta= 0.50
     Davidson diagonalization with overlap
     ethr =  1.33E-04,  avg # of iterations =  2.0

     total cpu time spent up to now is       69.8 secs

     total energy              =    -608.51374324 Ry
     estimated scf accuracy    <       0.02411628 Ry

     iteration #  4     ecut=   100.00 Ry     beta= 0.50
     Davidson diagonalization with overlap
     ethr =  3.77E-05,  avg # of iterations =  1.8

     total cpu time spent up to now is       73.3 secs

     total energy              =    -608.51142361 Ry
     estimated scf accuracy    <       0.00721362 Ry

     iteration #  5     ecut=   100.00 Ry     beta= 0.50
     Davidson diagonalization with overlap
     ethr =  1.13E-05,  avg # of iterations =  2.7

     total cpu time spent up to now is       77.1 secs

     total energy              =    -608.51200873 Ry
     estimated scf accuracy    <       0.00042904 Ry

     iteration #  6     ecut=   100.00 Ry     beta= 0.50
     Davidson diagonalization with overlap
     ethr =  6.70E-07,  avg # of iterations =  3.0

     total cpu time spent up to now is       81.3 secs

     total energy              =    -608.51208651 Ry
     estimated scf accuracy    <       0.00001485 Ry

     iteration #  7     ecut=   100.00 Ry     beta= 0.50
     Davidson diagonalization with overlap
     ethr =  2.32E-08,  avg # of iterations =  1.7

     total cpu time spent up to now is       84.7 secs

     total energy              =    -608.51207886 Ry
     estimated scf accuracy    <       0.00001827 Ry

     iteration #  8     ecut=   100.00 Ry     beta= 0.50
     Davidson diagonalization with overlap
     ethr =  2.32E-08,  avg # of iterations =  2.0

     total cpu time spent up to now is       88.6 secs

     total energy              =    -608.51207801 Ry
     estimated scf accuracy    <       0.00000332 Ry

     iteration #  9     ecut=   100.00 Ry     beta= 0.50
     Davidson diagonalization with overlap
     ethr =  5.19E-09,  avg # of iterations =  2.0

     total cpu time spent up to now is       93.2 secs

     End of self-consistent calculation

          k = 0.0000 0.0000 0.0000 (  8409 PWs)   bands (ev):

   -63.7769 -63.7634 -63.7634 -63.7634 -30.6136 -30.6136 -30.6136 -30.5635
   -30.5635 -30.5635 -30.5635 -30.5635 -30.5635 -30.5312 -30.5312 -30.5312
    -8.8897  -7.2521  -7.2521  -7.2521   4.2946   4.2946   4.2946   7.0870
     7.0870   7.0870   7.0870   7.0870   7.0870   8.4661   8.4661   8.4661
    13.5645  17.7377  17.7377  18.8451  18.8451  18.8451

          k =-0.0000 0.0000 0.2022 (  8501 PWs)   bands (ev):

   -63.7756 -63.7646 -63.7634 -63.7634 -30.6088 -30.6088 -30.6067 -30.5683
   -30.5683 -30.5644 -30.5644 -30.5604 -30.5604 -30.5400 -30.5342 -30.5342
    -8.7371  -7.4110  -7.2280  -7.2280   4.4905   4.4905   4.5332   6.7082
     6.7082   6.9320   6.9320   7.1983   7.1983   7.7499   8.3092   8.3092
    14.3844  18.0750  18.3524  18.3524  18.7006  19.4392

          k =-0.0000 0.0000 0.4043 (  8542 PWs)   bands (ev):

   -63.7722 -63.7680 -63.7633 -63.7633 -30.5962 -30.5962 -30.5877 -30.5807
   -30.5807 -30.5657 -30.5657 -30.5622 -30.5523 -30.5523 -30.5423 -30.5423
    -8.3332  -7.8259  -7.1885  -7.1885   5.0520   5.0520   5.2592   5.8764
     5.8764   6.4211   6.6924   6.6924   7.5069   7.5069   7.9282   7.9282
    16.0404  17.6992  19.0821  19.7042  19.7042  20.7418

          k =-0.0000 0.2022 0.0000 (  8501 PWs)   bands (ev):

   -63.7756 -63.7646 -63.7634 -63.7634 -30.6088 -30.6088 -30.6067 -30.5683
   -30.5683 -30.5644 -30.5644 -30.5604 -30.5604 -30.5400 -30.5342 -30.5342
    -8.7371  -7.4110  -7.2280  -7.2280   4.4905   4.4905   4.5332   6.7082
     6.7082   6.9320   6.9320   7.1983   7.1983   7.7499   8.3092   8.3092
    14.3844  18.0750  18.3524  18.3524  18.7006  19.4392

          k =-0.0000 0.2022 0.2022 (  8512 PWs)   bands (ev):

   -63.7744 -63.7645 -63.7645 -63.7635 -30.6050 -30.6050 -30.6041 -30.5785
   -30.5650 -30.5650 -30.5596 -30.5596 -30.5583 -30.5526 -30.5375 -30.5321
    -8.5926  -7.3688  -7.3688  -7.2198   4.6277   4.6277   4.6826   6.0703
     6.8362   6.8362   7.0889   7.1132   7.1132   7.2213   8.1246   8.3433
    14.9782  18.5493  18.6381  18.6381  19.1646  19.1646

          k =-0.0000 0.2022 0.4043 (  8538 PWs)   bands (ev):

   -63.7713 -63.7676 -63.7642 -63.7638 -30.5998 -30.5929 -30.5920 -30.5906
   -30.5770 -30.5734 -30.5575 -30.5565 -30.5560 -30.5486 -30.5459 -30.5375
    -8.2128  -7.7437  -7.2819  -7.2243   4.8978   5.1194   5.2317   5.3689
     6.0090   6.0338   7.0492   7.1722   7.1917   7.5514   7.6798   8.0407
    16.3716  17.9726  19.3523  19.4736  19.8492  19.8789

          k =-0.0000 0.2022-0.4043 (  8538 PWs)   bands (ev):

   -63.7713 -63.7676 -63.7642 -63.7638 -30.5998 -30.5929 -30.5920 -30.5906
   -30.5770 -30.5734 -30.5575 -30.5565 -30.5560 -30.5486 -30.5459 -30.5375
    -8.2128  -7.7437  -7.2819  -7.2243   4.8978   5.1194   5.2317   5.3689
     6.0090   6.0338   7.0492   7.1722   7.1917   7.5514   7.6798   8.0407
    16.3716  17.9726  19.3523  19.4736  19.8492  19.8789

          k =-0.0000 0.2022-0.2022 (  8512 PWs)   bands (ev):

   -63.7744 -63.7645 -63.7645 -63.7635 -30.6050 -30.6050 -30.6041 -30.5785
   -30.5650 -30.5650 -30.5596 -30.5596 -30.5583 -30.5526 -30.5375 -30.5321
    -8.5926  -7.3688  -7.3688  -7.2198   4.6277   4.6277   4.6826   6.0703
     6.8362   6.8362   7.0889   7.1132   7.1132   7.2213   8.1246   8.3433
    14.9782  18.5493  18.6381  18.6381  19.1646  19.1646

          k =-0.0000 0.4043 0.0000 (  8542 PWs)   bands (ev):

   -63.7722 -63.7680 -63.7634 -63.7633 -30.5962 -30.5962 -30.5877 -30.5807
   -30.5807 -30.5657 -30.5657 -30.5622 -30.5523 -30.5523 -30.5423 -30.5423
    -8.3332  -7.8259  -7.1885  -7.1885   5.0520   5.0520   5.2592   5.8764
     5.8764   6.4211   6.6924   6.6924   7.5069   7.5069   7.9282   7.9282
    16.0404  17.6992  19.0821  19.7042  19.7042  20.7418

          k =-0.0000 0.4043 0.2022 (  8538 PWs)   bands (ev):

   -63.7713 -63.7676 -63.7642 -63.7638 -30.5998 -30.5929 -30.5920 -30.5906
   -30.5770 -30.5734 -30.5575 -30.5565 -30.5560 -30.5486 -30.5459 -30.5375
    -8.2128  -7.7437  -7.2819  -7.2243   4.8978   5.1194   5.2317   5.3689
     6.0090   6.0338   7.0492   7.1722   7.1917   7.5514   7.6798   8.0407
    16.3716  17.9726  19.3523  19.4736  19.8492  19.8789

          k =-0.0000 0.4043 0.4043 (  8510 PWs)   bands (ev):

   -63.7691 -63.7664 -63.7664 -63.7649 -30.5998 -30.5998 -30.5997 -30.5900
   -30.5810 -30.5674 -30.5674 -30.5555 -30.5466 -30.5445 -30.5445 -30.5366
    -7.9051  -7.5466  -7.5466  -7.3459   4.8865   4.8865   4.9141   5.3140
     5.7420   6.4758   6.4758   7.0963   7.5749   7.6343   7.6343   8.0073
    17.2612  18.5120  18.5120  18.9375  20.2213  20.7234

          k =-0.0000 0.4043-0.4043 (  8510 PWs)   bands (ev):

   -63.7691 -63.7664 -63.7664 -63.7649 -30.5998 -30.5998 -30.5997 -30.5900
   -30.5810 -30.5674 -30.5674 -30.5555 -30.5466 -30.5445 -30.5445 -30.5366
    -7.9051  -7.5466  -7.5466  -7.3459   4.8865   4.8865   4.9141   5.3140
     5.7420   6.4758   6.4758   7.0963   7.5749   7.6343   7.6343   8.0073
    17.2612  18.5120  18.5120  18.9375  20.2213  20.2214

          k =-0.0000 0.4043-0.2022 (  8538 PWs)   bands (ev):

   -63.7713 -63.7676 -63.7642 -63.7638 -30.5998 -30.5929 -30.5920 -30.5906
   -30.5770 -30.5734 -30.5575 -30.5565 -30.5560 -30.5486 -30.5459 -30.5375
    -8.2128  -7.7437  -7.2819  -7.2243   4.8978   5.1194   5.2317   5.3689
     6.0090   6.0338   7.0492   7.1722   7.1917   7.5514   7.6798   8.0407
    16.3716  17.9726  19.3523  19.4736  19.8492  19.8789

          k = 0.2022-0.0000-0.0000 (  8501 PWs)   bands (ev):

   -63.7756 -63.7646 -63.7634 -63.7634 -30.6088 -30.6088 -30.6067 -30.5683
   -30.5683 -30.5644 -30.5644 -30.5604 -30.5604 -30.5400 -30.5342 -30.5342
    -8.7371  -7.4110  -7.2280  -7.2280   4.4905   4.4905   4.5332   6.7082
     6.7082   6.9320   6.9320   7.1983   7.1983   7.7499   8.3092   8.3092
    14.3844  18.0750  18.3524  18.3524  18.7006  19.4392

          k = 0.2022-0.0000 0.2022 (  8512 PWs)   bands (ev):

   -63.7744 -63.7645 -63.7645 -63.7635 -30.6050 -30.6050 -30.6041 -30.5785
   -30.5650 -30.5650 -30.5596 -30.5596 -30.5583 -30.5526 -30.5375 -30.5321
    -8.5926  -7.3689  -7.3688  -7.2198   4.6277   4.6277   4.6826   6.0703
     6.8362   6.8362   7.0889   7.1132   7.1132   7.2213   8.1246   8.3433
    14.9782  18.5493  18.6381  18.6381  19.1646  19.1646

          k = 0.2022 0.0000 0.4043 (  8538 PWs)   bands (ev):

   -63.7713 -63.7676 -63.7642 -63.7638 -30.5998 -30.5929 -30.5920 -30.5906
   -30.5770 -30.5734 -30.5575 -30.5565 -30.5560 -30.5486 -30.5459 -30.5375
    -8.2128  -7.7437  -7.2819  -7.2243   4.8978   5.1194   5.2317   5.3689
     6.0090   6.0338   7.0492   7.1722   7.1917   7.5514   7.6798   8.0407
    16.3716  17.9726  19.3523  19.4737  19.8492  19.8789

          k = 0.2022-0.0000-0.4043 (  8538 PWs)   bands (ev):

   -63.7713 -63.7676 -63.7642 -63.7638 -30.5998 -30.5929 -30.5920 -30.5906
   -30.5770 -30.5734 -30.5575 -30.5565 -30.5560 -30.5486 -30.5459 -30.5375
    -8.2128  -7.7437  -7.2819  -7.2243   4.8978   5.1194   5.2317   5.3689
     6.0090   6.0338   7.0492   7.1722   7.1917   7.5514   7.6798   8.0407
    16.3716  17.9726  19.3523  19.4736  19.8492  19.8789

          k = 0.2022-0.0000-0.2022 (  8512 PWs)   bands (ev):

   -63.7744 -63.7645 -63.7645 -63.7635 -30.6050 -30.6050 -30.6041 -30.5785
   -30.5650 -30.5650 -30.5596 -30.5596 -30.5583 -30.5526 -30.5375 -30.5321
    -8.5926  -7.3689  -7.3688  -7.2198   4.6277   4.6277   4.6826   6.0703
     6.8362   6.8362   7.0889   7.1132   7.1132   7.2213   8.1246   8.3433
    14.9782  18.5493  18.6381  18.6381  19.1646  19.1646

          k = 0.2022 0.2022 0.0000 (  8512 PWs)   bands (ev):

   -63.7744 -63.7645 -63.7645 -63.7635 -30.6050 -30.6050 -30.6041 -30.5785
   -30.5650 -30.5650 -30.5596 -30.5596 -30.5583 -30.5526 -30.5375 -30.5321
    -8.5926  -7.3689  -7.3688  -7.2198   4.6277   4.6277   4.6826   6.0703
     6.8361   6.8362   7.0889   7.1132   7.1132   7.2213   8.1246   8.3433
    14.9782  18.5493  18.6381  18.6381  19.1646  19.1646

          k = 0.2022 0.2022 0.2022 (  8517 PWs)   bands (ev):

   -63.7733 -63.7645 -63.7645 -63.7645 -30.6056 -30.6056 -30.6056 -30.5690
   -30.5690 -30.5690 -30.5652 -30.5557 -30.5557 -30.5557 -30.5346 -30.5346
    -8.4565  -7.3419  -7.3419  -7.3419   4.6402   4.6402   4.6402   6.4431
     6.4431   6.4431   6.4723   7.3146   7.3146   7.3146   8.2198   8.2198
    15.3690  18.5541  18.5541  18.5541  19.9209  19.9209

          k = 0.2022 0.2022 0.4043 (  8510 PWs)   bands (ev):

   -63.7706 -63.7672 -63.7645 -63.7645 -30.6069 -30.6069 -30.6008 -30.5855
   -30.5718 -30.5718 -30.5529 -30.5529 -30.5522 -30.5491 -30.5411 -30.5389
    -8.1027  -7.6745  -7.2978  -7.2978   4.6259   4.6260   4.8489   5.5182
     6.1690   6.1690   7.1909   7.3076   7.3076   7.5709   7.8975   7.9151
    16.4414  17.7968  18.8712  18.8712  20.0407  20.7346

          k = 0.2022 0.2022-0.4043 (  8510 PWs)   bands (ev):

   -63.7706 -63.7672 -63.7645 -63.7645 -30.6069 -30.6069 -30.6008 -30.5855
   -30.5718 -30.5718 -30.5529 -30.5529 -30.5522 -30.5491 -30.5411 -30.5389
    -8.1027  -7.6745  -7.2978  -7.2978   4.6259   4.6260   4.8489   5.5181
     6.1690   6.1690   7.1909   7.3076   7.3076   7.5709   7.8975   7.9151
    16.4414  17.7968  18.8712  18.8712  20.0407  20.7346

          k = 0.2022 0.2022-0.2022 (  8517 PWs)   bands (ev):

   -63.7733 -63.7645 -63.7645 -63.7645 -30.6056 -30.6056 -30.6056 -30.5690
   -30.5690 -30.5690 -30.5652 -30.5557 -30.5557 -30.5557 -30.5346 -30.5346
    -8.4565  -7.3419  -7.3419  -7.3419   4.6402   4.6402   4.6402   6.4431
     6.4431   6.4431   6.4723   7.3146   7.3146   7.3146   8.2198   8.2198
    15.3690  18.5541  18.5541  18.5541  19.9209  19.9209

          k = 0.2022 0.4043 0.0000 (  8538 PWs)   bands (ev):

   -63.7713 -63.7676 -63.7642 -63.7638 -30.5998 -30.5929 -30.5920 -30.5906
   -30.5770 -30.5734 -30.5575 -30.5565 -30.5560 -30.5486 -30.5459 -30.5375
    -8.2128  -7.7437  -7.2819  -7.2243   4.8978   5.1194   5.2317   5.3689
     6.0090   6.0338   7.0492   7.1722   7.1917   7.5514   7.6798   8.0407
    16.3716  17.9726  19.3523  19.4736  19.8492  19.8789

          k = 0.2022 0.4043 0.2022 (  8510 PWs)   bands (ev):

   -63.7706 -63.7672 -63.7645 -63.7645 -30.6069 -30.6069 -30.6008 -30.5855
   -30.5718 -30.5718 -30.5529 -30.5529 -30.5522 -30.5491 -30.5411 -30.5389
    -8.1027  -7.6745  -7.2978  -7.2978   4.6260   4.6260   4.8489   5.5182
     6.1690   6.1690   7.1909   7.3076   7.3076   7.5709   7.8975   7.9151
    16.4414  17.7968  18.8712  18.8712  20.0407  20.7346

          k = 0.2022 0.4043 0.4043 (  8499 PWs)   bands (ev):

   -63.7687 -63.7664 -63.7664 -63.7653 -30.6141 -30.6116 -30.6116 -30.6030
   -30.5640 -30.5565 -30.5565 -30.5466 -30.5457 -30.5443 -30.5443 -30.5376
    -7.8262  -7.5155  -7.5155  -7.3696   4.3224   4.4239   4.4239   4.7838
     6.5259   6.9492   6.9493   7.5301   7.6137   7.6553   7.6553   7.9636
    16.8834  17.8114  17.8114  18.1659  20.8071  20.8071

          k = 0.2022 0.4043-0.4043 (  8499 PWs)   bands (ev):

   -63.7687 -63.7664 -63.7664 -63.7653 -30.6141 -30.6116 -30.6116 -30.6030
   -30.5640 -30.5565 -30.5565 -30.5466 -30.5457 -30.5443 -30.5443 -30.5376
    -7.8262  -7.5155  -7.5155  -7.3696   4.3224   4.4239   4.4239   4.7838
     6.5259   6.9492   6.9493   7.5301   7.6137   7.6553   7.6553   7.9636
    16.8834  17.8114  17.8114  18.1659  20.8071  20.8071

          k = 0.2022 0.4043-0.2022 (  8510 PWs)   bands (ev):

   -63.7706 -63.7672 -63.7645 -63.7645 -30.6069 -30.6069 -30.6008 -30.5855
   -30.5718 -30.5718 -30.5529 -30.5529 -30.5522 -30.5491 -30.5411 -30.5389
    -8.1027  -7.6745  -7.2978  -7.2978   4.6260   4.6260   4.8489   5.5182
     6.1690   6.1690   7.1909   7.3076   7.3076   7.5709   7.8975   7.9151
    16.4414  17.7968  18.8712  18.8712  20.0407  20.7346

          k = 0.2022-0.4043-0.0000 (  8538 PWs)   bands (ev):

   -63.7713 -63.7676 -63.7642 -63.7638 -30.5998 -30.5929 -30.5920 -30.5906
   -30.5770 -30.5734 -30.5575 -30.5565 -30.5560 -30.5486 -30.5459 -30.5375
    -8.2128  -7.7437  -7.2819  -7.2243   4.8978   5.1194   5.2317   5.3689
     6.0090   6.0338   7.0492   7.1722   7.1917   7.5514   7.6798   8.0407
    16.3716  17.9726  19.3523  19.4736  19.8492  19.8789

          k = 0.2022-0.4043 0.2022 (  8510 PWs)   bands (ev):

   -63.7706 -63.7672 -63.7645 -63.7645 -30.6069 -30.6069 -30.6008 -30.5855
   -30.5718 -30.5718 -30.5529 -30.5529 -30.5522 -30.5491 -30.5411 -30.5389
    -8.1027  -7.6745  -7.2978  -7.2978   4.6260   4.6260   4.8489   5.5182
     6.1690   6.1690   7.1909   7.3076   7.3076   7.5709   7.8975   7.9151
    16.4414  17.7968  18.8712  18.8712  20.0407  20.7346

          k = 0.2022-0.4043 0.4043 (  8499 PWs)   bands (ev):

   -63.7687 -63.7664 -63.7664 -63.7653 -30.6141 -30.6116 -30.6116 -30.6030
   -30.5640 -30.5565 -30.5565 -30.5466 -30.5457 -30.5443 -30.5443 -30.5376
    -7.8262  -7.5155  -7.5155  -7.3696   4.3224   4.4239   4.4239   4.7838
     6.5259   6.9492   6.9493   7.5301   7.6137   7.6553   7.6553   7.9636
    16.8834  17.8114  17.8114  18.1659  20.8071  20.8071

          k = 0.2022-0.4043-0.4043 (  8499 PWs)   bands (ev):

   -63.7687 -63.7664 -63.7664 -63.7653 -30.6141 -30.6116 -30.6116 -30.6030
   -30.5640 -30.5565 -30.5565 -30.5466 -30.5457 -30.5443 -30.5443 -30.5376
    -7.8262  -7.5155  -7.5155  -7.3696   4.3224   4.4239   4.4239   4.7838
     6.5259   6.9492   6.9493   7.5301   7.6137   7.6553   7.6553   7.9636
    16.8834  17.8114  17.8114  18.1659  20.8071  20.8071

          k = 0.2022-0.4043-0.2022 (  8510 PWs)   bands (ev):

   -63.7706 -63.7672 -63.7645 -63.7645 -30.6069 -30.6069 -30.6008 -30.5855
   -30.5718 -30.5718 -30.5529 -30.5529 -30.5522 -30.5491 -30.5411 -30.5389
    -8.1027  -7.6745  -7.2978  -7.2978   4.6260   4.6260   4.8489   5.5182
     6.1690   6.1690   7.1909   7.3076   7.3076   7.5709   7.8975   7.9151
    16.4414  17.7968  18.8712  18.8712  20.0407  20.7346

          k = 0.2022-0.2022-0.0000 (  8512 PWs)   bands (ev):

   -63.7744 -63.7645 -63.7645 -63.7635 -30.6050 -30.6050 -30.6041 -30.5785
   -30.5650 -30.5650 -30.5596 -30.5596 -30.5583 -30.5526 -30.5375 -30.5321
    -8.5926  -7.3689  -7.3688  -7.2198   4.6277   4.6277   4.6826   6.0703
     6.8361   6.8362   7.0889   7.1132   7.1132   7.2213   8.1246   8.3433
    14.9782  18.5493  18.6381  18.6381  19.1646  19.1646

          k = 0.2022-0.2022 0.2022 (  8517 PWs)   bands (ev):

   -63.7733 -63.7645 -63.7645 -63.7645 -30.6056 -30.6056 -30.6056 -30.5690
   -30.5690 -30.5690 -30.5652 -30.5557 -30.5557 -30.5557 -30.5346 -30.5346
    -8.4565  -7.3419  -7.3419  -7.3419   4.6402   4.6402   4.6402   6.4431
     6.4431   6.4431   6.4723   7.3146   7.3146   7.3146   8.2198   8.2198
    15.3690  18.5541  18.5541  18.5541  19.9209  19.9209

          k = 0.2022-0.2022 0.4043 (  8510 PWs)   bands (ev):

   -63.7706 -63.7672 -63.7645 -63.7645 -30.6069 -30.6069 -30.6008 -30.5855
   -30.5718 -30.5718 -30.5529 -30.5529 -30.5522 -30.5491 -30.5411 -30.5389
    -8.1027  -7.6745  -7.2978  -7.2978   4.6259   4.6260   4.8489   5.5182
     6.1690   6.1690   7.1909   7.3076   7.3076   7.5709   7.8975   7.9151
    16.4414  17.7968  18.8712  18.8712  20.0407  20.7346

          k = 0.2022-0.2022-0.4043 (  8510 PWs)   bands (ev):

   -63.7706 -63.7672 -63.7645 -63.7645 -30.6069 -30.6069 -30.6008 -30.5855
   -30.5718 -30.5718 -30.5529 -30.5529 -30.5522 -30.5491 -30.5411 -30.5389
    -8.1027  -7.6745  -7.2978  -7.2978   4.6259   4.6260   4.8489   5.5182
     6.1690   6.1690   7.1909   7.3076   7.3076   7.5709   7.8975   7.9151
    16.4414  17.7968  18.8712  18.8712  20.0407  20.7346

          k = 0.2022-0.2022-0.2022 (  8517 PWs)   bands (ev):

   -63.7733 -63.7645 -63.7645 -63.7645 -30.6056 -30.6056 -30.6056 -30.5690
   -30.5690 -30.5690 -30.5652 -30.5557 -30.5557 -30.5557 -30.5346 -30.5346
    -8.4565  -7.3419  -7.3419  -7.3419   4.6402   4.6402   4.6402   6.4431
     6.4431   6.4431   6.4723   7.3146   7.3146   7.3146   8.2198   8.2198
    15.3690  18.5541  18.5541  18.5541  19.9209  19.9209

          k = 0.4043-0.0000-0.0000 (  8542 PWs)   bands (ev):

   -63.7722 -63.7680 -63.7633 -63.7633 -30.5962 -30.5962 -30.5877 -30.5807
   -30.5807 -30.5657 -30.5657 -30.5622 -30.5523 -30.5523 -30.5423 -30.5423
    -8.3332  -7.8259  -7.1885  -7.1885   5.0520   5.0520   5.2592   5.8764
     5.8764   6.4211   6.6924   6.6924   7.5069   7.5069   7.9282   7.9282
    16.0404  17.6992  19.0821  19.7042  19.7042  20.7418

          k = 0.4043-0.0000 0.2022 (  8538 PWs)   bands (ev):

   -63.7713 -63.7676 -63.7642 -63.7638 -30.5998 -30.5929 -30.5920 -30.5906
   -30.5770 -30.5734 -30.5575 -30.5565 -30.5560 -30.5486 -30.5459 -30.5375
    -8.2128  -7.7437  -7.2819  -7.2243   4.8978   5.1194   5.2317   5.3689
     6.0090   6.0338   7.0492   7.1722   7.1917   7.5514   7.6798   8.0407
    16.3716  17.9726  19.3523  19.4736  19.8492  19.8789

          k = 0.4043-0.0000 0.4043 (  8510 PWs)   bands (ev):

   -63.7691 -63.7664 -63.7664 -63.7649 -30.5999 -30.5998 -30.5997 -30.5900
   -30.5810 -30.5674 -30.5674 -30.5555 -30.5466 -30.5445 -30.5445 -30.5366
    -7.9051  -7.5466  -7.5466  -7.3459   4.8865   4.8865   4.9141   5.3140
     5.7420   6.4758   6.4758   7.0963   7.5749   7.6343   7.6343   8.0073
    17.2612  18.5120  18.5120  18.9375  20.2213  20.2213

          k = 0.4043-0.0000-0.4043 (  8510 PWs)   bands (ev):

   -63.7691 -63.7664 -63.7664 -63.7649 -30.5999 -30.5998 -30.5997 -30.5900
   -30.5810 -30.5674 -30.5674 -30.5555 -30.5466 -30.5445 -30.5445 -30.5366
    -7.9051  -7.5466  -7.5466  -7.3459   4.8865   4.8865   4.9141   5.3140
     5.7420   6.4758   6.4758   7.0963   7.5749   7.6343   7.6343   8.0073
    17.2612  18.5120  18.5120  18.9375  20.2213  20.2215

          k = 0.4043-0.0000-0.2022 (  8538 PWs)   bands (ev):

   -63.7713 -63.7676 -63.7642 -63.7638 -30.5998 -30.5929 -30.5920 -30.5906
   -30.5770 -30.5734 -30.5575 -30.5565 -30.5560 -30.5486 -30.5459 -30.5375
    -8.2128  -7.7437  -7.2819  -7.2243   4.8978   5.1194   5.2317   5.3689
     6.0090   6.0338   7.0492   7.1722   7.1917   7.5514   7.6798   8.0407
    16.3716  17.9726  19.3523  19.4736  19.8492  19.8789

          k = 0.4043 0.2022 0.0000 (  8538 PWs)   bands (ev):

   -63.7713 -63.7676 -63.7642 -63.7638 -30.5998 -30.5929 -30.5920 -30.5906
   -30.5770 -30.5734 -30.5575 -30.5565 -30.5560 -30.5486 -30.5459 -30.5375
    -8.2128  -7.7437  -7.2819  -7.2243   4.8978   5.1194   5.2317   5.3689
     6.0090   6.0338   7.0492   7.1722   7.1917   7.5514   7.6798   8.0407
    16.3716  17.9726  19.3523  19.4736  19.8492  19.8789

          k = 0.4043 0.2022 0.2022 (  8510 PWs)   bands (ev):

   -63.7706 -63.7672 -63.7645 -63.7645 -30.6069 -30.6069 -30.6008 -30.5855
   -30.5718 -30.5718 -30.5529 -30.5529 -30.5522 -30.5491 -30.5411 -30.5389
    -8.1027  -7.6745  -7.2978  -7.2978   4.6260   4.6260   4.8489   5.5182
     6.1690   6.1690   7.1909   7.3076   7.3076   7.5709   7.8975   7.9151
    16.4414  17.7968  18.8712  18.8712  20.0407  20.7346

          k = 0.4043 0.2022 0.4043 (  8499 PWs)   bands (ev):

   -63.7687 -63.7664 -63.7664 -63.7653 -30.6141 -30.6116 -30.6116 -30.6030
   -30.5640 -30.5565 -30.5565 -30.5466 -30.5457 -30.5443 -30.5443 -30.5376
    -7.8262  -7.5155  -7.5155  -7.3696   4.3224   4.4239   4.4239   4.7838
     6.5259   6.9492   6.9493   7.5301   7.6137   7.6553   7.6553   7.9636
    16.8834  17.8114  17.8114  18.1659  20.8071  20.8071

          k = 0.4043 0.2022-0.4043 (  8499 PWs)   bands (ev):

   -63.7687 -63.7664 -63.7664 -63.7653 -30.6141 -30.6116 -30.6116 -30.6030
   -30.5640 -30.5565 -30.5565 -30.5466 -30.5457 -30.5443 -30.5443 -30.5376
    -7.8262  -7.5155  -7.5155  -7.3696   4.3224   4.4239   4.4239   4.7838
     6.5259   6.9492   6.9493   7.5301   7.6137   7.6553   7.6553   7.9636
    16.8834  17.8114  17.8114  18.1659  20.8071  20.8071

          k = 0.4043 0.2022-0.2022 (  8510 PWs)   bands (ev):

   -63.7706 -63.7672 -63.7645 -63.7645 -30.6069 -30.6069 -30.6008 -30.5855
   -30.5718 -30.5718 -30.5529 -30.5529 -30.5522 -30.5491 -30.5411 -30.5389
    -8.1027  -7.6745  -7.2978  -7.2978   4.6260   4.6260   4.8489   5.5182
     6.1690   6.1690   7.1909   7.3076   7.3076   7.5709   7.8975   7.9151
    16.4414  17.7968  18.8712  18.8712  20.0407  20.7346

          k = 0.4043 0.4043 0.0000 (  8510 PWs)   bands (ev):

   -63.7691 -63.7664 -63.7664 -63.7649 -30.5998 -30.5998 -30.5997 -30.5900
   -30.5810 -30.5674 -30.5674 -30.5555 -30.5466 -30.5445 -30.5445 -30.5366
    -7.9051  -7.5466  -7.5466  -7.3459   4.8865   4.8865   4.9141   5.3140
     5.7420   6.4758   6.4758   7.0963   7.5749   7.6343   7.6343   8.0073
    17.2612  18.5120  18.5120  18.9375  20.2213  20.2214

          k = 0.4043 0.4043 0.2022 (  8499 PWs)   bands (ev):

   -63.7687 -63.7664 -63.7664 -63.7653 -30.6141 -30.6116 -30.6116 -30.6030
   -30.5640 -30.5565 -30.5565 -30.5466 -30.5457 -30.5443 -30.5443 -30.5376
    -7.8262  -7.5155  -7.5155  -7.3696   4.3224   4.4239   4.4239   4.7838
     6.5259   6.9492   6.9493   7.5301   7.6137   7.6553   7.6553   7.9636
    16.8834  17.8114  17.8114  18.1659  20.8071  20.8071

          k = 0.4043 0.4043 0.4043 (  8465 PWs)   bands (ev):

   -63.7677 -63.7664 -63.7664 -63.7664 -30.6243 -30.6243 -30.6243 -30.6196
   -30.5462 -30.5462 -30.5462 -30.5431 -30.5431 -30.5431 -30.5400 -30.5400
    -7.6413  -7.4643  -7.4643  -7.4643   3.9143   3.9143   3.9143   4.1065
     7.4514   7.4515   7.4515   7.7179   7.7179   7.7179   7.8515   7.8515
    16.5835  17.0804  17.0804  17.0804  21.3164  21.3165

          k = 0.4043 0.4043-0.4043 (  8465 PWs)   bands (ev):

   -63.7677 -63.7664 -63.7664 -63.7664 -30.6243 -30.6243 -30.6243 -30.6196
   -30.5462 -30.5462 -30.5462 -30.5431 -30.5431 -30.5431 -30.5400 -30.5400
    -7.6413  -7.4643  -7.4643  -7.4643   3.9143   3.9143   3.9143   4.1065
     7.4514   7.4515   7.4515   7.7179   7.7179   7.7179   7.8515   7.8515
    16.5835  17.0804  17.0804  17.0804  21.3164  21.3165

          k = 0.4043 0.4043-0.2022 (  8499 PWs)   bands (ev):

   -63.7687 -63.7664 -63.7664 -63.7653 -30.6141 -30.6116 -30.6116 -30.6030
   -30.5640 -30.5565 -30.5565 -30.5466 -30.5457 -30.5443 -30.5443 -30.5376
    -7.8262  -7.5155  -7.5155  -7.3696   4.3224   4.4239   4.4239   4.7838
     6.5259   6.9492   6.9493   7.5301   7.6137   7.6553   7.6553   7.9636
    16.8834  17.8114  17.8114  18.1659  20.8071  20.8071

          k = 0.4043-0.4043-0.0000 (  8510 PWs)   bands (ev):

   -63.7691 -63.7664 -63.7664 -63.7649 -30.5998 -30.5998 -30.5997 -30.5900
   -30.5810 -30.5674 -30.5674 -30.5555 -30.5466 -30.5445 -30.5445 -30.5366
    -7.9051  -7.5466  -7.5466  -7.3459   4.8865   4.8865   4.9141   5.3140
     5.7420   6.4758   6.4758   7.0963   7.5749   7.6343   7.6343   8.0073
    17.2612  18.5120  18.5120  18.9375  20.2213  20.7239

          k = 0.4043-0.4043 0.2022 (  8499 PWs)   bands (ev):

   -63.7687 -63.7664 -63.7664 -63.7653 -30.6141 -30.6116 -30.6116 -30.6030
   -30.5640 -30.5565 -30.5565 -30.5466 -30.5457 -30.5443 -30.5443 -30.5376
    -7.8262  -7.5155  -7.5155  -7.3696   4.3224   4.4239   4.4239   4.7838
     6.5259   6.9492   6.9493   7.5301   7.6137   7.6553   7.6553   7.9636
    16.8834  17.8114  17.8114  18.1659  20.8071  20.8071

          k = 0.4043-0.4043 0.4043 (  8465 PWs)   bands (ev):

   -63.7677 -63.7664 -63.7664 -63.7664 -30.6243 -30.6243 -30.6243 -30.6196
   -30.5462 -30.5462 -30.5462 -30.5431 -30.5431 -30.5431 -30.5400 -30.5400
    -7.6413  -7.4643  -7.4643  -7.4643   3.9143   3.9143   3.9143   4.1065
     7.4514   7.4515   7.4515   7.7179   7.7179   7.7179   7.8515   7.8515
    16.5835  17.0804  17.0804  17.0804  21.3164  21.3165

          k = 0.4043-0.4043-0.4043 (  8465 PWs)   bands (ev):

   -63.7677 -63.7664 -63.7664 -63.7664 -30.6243 -30.6243 -30.6243 -30.6196
   -30.5462 -30.5462 -30.5462 -30.5431 -30.5431 -30.5431 -30.5400 -30.5400
    -7.6413  -7.4643  -7.4643  -7.4643   3.9143   3.9143   3.9143   4.1065
     7.4514   7.4515   7.4515   7.7179   7.7179   7.7179   7.8515   7.8515
    16.5835  17.0804  17.0804  17.0804  21.3164  21.3165

          k = 0.4043-0.4043-0.2022 (  8499 PWs)   bands (ev):

   -63.7687 -63.7664 -63.7664 -63.7653 -30.6141 -30.6116 -30.6116 -30.6030
   -30.5640 -30.5565 -30.5565 -30.5466 -30.5457 -30.5443 -30.5443 -30.5376
    -7.8262  -7.5155  -7.5155  -7.3696   4.3224   4.4239   4.4239   4.7838
     6.5259   6.9492   6.9493   7.5301   7.6137   7.6553   7.6553   7.9636
    16.8834  17.8114  17.8114  18.1659  20.8071  20.8071

          k = 0.4043-0.2022-0.0000 (  8538 PWs)   bands (ev):

   -63.7713 -63.7676 -63.7642 -63.7638 -30.5998 -30.5929 -30.5920 -30.5906
   -30.5770 -30.5734 -30.5575 -30.5565 -30.5560 -30.5486 -30.5459 -30.5375
    -8.2128  -7.7437  -7.2819  -7.2243   4.8978   5.1194   5.2317   5.3689
     6.0090   6.0338   7.0492   7.1722   7.1917   7.5514   7.6798   8.0407
    16.3716  17.9726  19.3523  19.4736  19.8492  19.8789

          k = 0.4043-0.2022 0.2022 (  8510 PWs)   bands (ev):

   -63.7706 -63.7672 -63.7645 -63.7645 -30.6069 -30.6069 -30.6008 -30.5855
   -30.5718 -30.5718 -30.5529 -30.5529 -30.5522 -30.5491 -30.5411 -30.5389
    -8.1027  -7.6745  -7.2978  -7.2978   4.6260   4.6260   4.8489   5.5182
     6.1690   6.1690   7.1909   7.3076   7.3076   7.5709   7.8975   7.9151
    16.4414  17.7968  18.8712  18.8712  20.0407  20.7346

          k = 0.4043-0.2022 0.4043 (  8499 PWs)   bands (ev):

   -63.7687 -63.7664 -63.7664 -63.7653 -30.6141 -30.6116 -30.6116 -30.6030
   -30.5640 -30.5565 -30.5565 -30.5466 -30.5457 -30.5443 -30.5443 -30.5376
    -7.8262  -7.5155  -7.5155  -7.3696   4.3224   4.4239   4.4239   4.7838
     6.5259   6.9492   6.9493   7.5301   7.6137   7.6553   7.6553   7.9636
    16.8834  17.8114  17.8114  18.1659  20.8071  20.8071

          k = 0.4043-0.2022-0.4043 (  8499 PWs)   bands (ev):

   -63.7687 -63.7664 -63.7664 -63.7653 -30.6141 -30.6116 -30.6116 -30.6030
   -30.5640 -30.5565 -30.5565 -30.5466 -30.5457 -30.5443 -30.5443 -30.5376
    -7.8262  -7.5155  -7.5155  -7.3696   4.3224   4.4239   4.4239   4.7838
     6.5259   6.9492   6.9493   7.5301   7.6137   7.6553   7.6553   7.9636
    16.8834  17.8114  17.8114  18.1659  20.8071  20.8071

          k = 0.4043-0.2022-0.2022 (  8510 PWs)   bands (ev):

   -63.7706 -63.7672 -63.7645 -63.7645 -30.6069 -30.6069 -30.6008 -30.5855
   -30.5718 -30.5718 -30.5529 -30.5529 -30.5522 -30.5491 -30.5411 -30.5389
    -8.1027  -7.6745  -7.2978  -7.2978   4.6260   4.6260   4.8489   5.5182
     6.1690   6.1690   7.1909   7.3076   7.3076   7.5709   7.8975   7.9151
    16.4414  17.7968  18.8712  18.8712  20.0407  20.7346

     the Fermi energy is    10.7818 ev

!    total energy              =    -608.51207885 Ry
     estimated scf accuracy    <       0.00000013 Ry
     smearing contrib. (-TS)   =      -0.00000000 Ry
     internal energy E=F+TS    =    -608.51207885 Ry

     The total energy is F=E-TS. E is the sum of the following terms:
     one-electron contribution =    -290.95882249 Ry
     hartree contribution      =     163.94926158 Ry
     xc contribution           =     -98.12711405 Ry
     ewald contribution        =    -383.26341668 Ry
     DFT-D3 Dispersion         =      -0.11198722 Ry

     convergence has been achieved in   9 iterations

     Forces acting on atoms (cartesian axes, Ry/au):

     atom    1 type  1   force =    -0.00000005   -0.00000022    0.00000005
     atom    2 type  1   force =    -0.00000005   -0.00000008   -0.00000002
     atom    3 type  1   force =     0.00000005   -0.00000004    0.00000006
     atom    4 type  1   force =    -0.00000002    0.00000029   -0.00000013
     atom    5 type  2   force =     0.00000020   -0.00000003    0.00000018
     atom    6 type  2   force =    -0.00000003   -0.00000038   -0.00000011
     atom    7 type  2   force =    -0.00000004    0.00000021   -0.00000004
     atom    8 type  2   force =    -0.00000005    0.00000023    0.00000000

     Total force =     0.000001     Total SCF correction =     0.000003
     SCF correction compared to forces is large: reduce conv_thr to get better values


     Computing stress (Cartesian axis) and pressure

          total   stress  (Ry/bohr**3)                   (kbar)     P=       68.59
   0.00046630   0.00000000  -0.00000000           68.59        0.00       -0.00
   0.00000000   0.00046629   0.00000000            0.00       68.59        0.00
  -0.00000000   0.00000000   0.00046629           -0.00        0.00       68.59


     number of scf cycles    =   2
     number of bfgs steps    =   1

     enthalpy old            =    -608.2594177971 Ry
     enthalpy new            =    -608.2633250841 Ry

     CASE: enthalpy_new < enthalpy_old

     new trust radius        =       0.0052841805 bohr
     new conv_thr            =       0.0000000100 Ry

     new unit-cell volume =    486.15725 a.u.^3 (    72.04107 Ang^3 )
     density =      3.71601 g/cm^3

CELL_PARAMETERS (angstrom)
   4.160958824   0.000000126  -0.000000043
   0.000000126   4.160958519  -0.000000046
  -0.000000043  -0.000000046   4.160958241

ATOMIC_POSITIONS (angstrom)
Mg            0.0000000703        0.0000002124       -0.0000001012
Mg            0.0000000430        2.0804794618        2.0804790797
Mg            2.0804793513        0.0000000207        2.0804790352
Mg            2.0804794252        2.0804789048        0.0000001483
O             2.0804794606        2.0804793210        2.0804788972
O             2.0804794379        0.0000002282       -0.0000000014
O            -0.0000000233        2.0804791407       -0.0000000149
O             0.0000000498       -0.0000000909        2.0804792608


     NEW-OLD atomic charge density approx. for the potential
     extrapolated charge   63.76981, renormalised to   64.00000

     total cpu time spent up to now is      104.1 secs

     Self-consistent Calculation

     iteration #  1     ecut=   100.00 Ry     beta= 0.50
     Davidson diagonalization with overlap
     ethr =  1.00E-06,  avg # of iterations =  2.0

     total cpu time spent up to now is      112.1 secs

     total energy              =    -608.50957002 Ry
     estimated scf accuracy    <       0.00094755 Ry

     iteration #  2     ecut=   100.00 Ry     beta= 0.50
     Davidson diagonalization with overlap
     ethr =  1.48E-06,  avg # of iterations =  3.0

     total cpu time spent up to now is      117.5 secs

     total energy              =    -608.51127406 Ry
     estimated scf accuracy    <       0.00127193 Ry

     iteration #  3     ecut=   100.00 Ry     beta= 0.50
     Davidson diagonalization with overlap
     ethr =  1.48E-06,  avg # of iterations =  2.2

     total cpu time spent up to now is      121.1 secs

     total energy              =    -608.51125902 Ry
     estimated scf accuracy    <       0.00029564 Ry

     iteration #  4     ecut=   100.00 Ry     beta= 0.50
     Davidson diagonalization with overlap
     ethr =  4.62E-07,  avg # of iterations =  1.0

     total cpu time spent up to now is      124.5 secs

     total energy              =    -608.51122042 Ry
     estimated scf accuracy    <       0.00009670 Ry

     iteration #  5     ecut=   100.00 Ry     beta= 0.50
     Davidson diagonalization with overlap
     ethr =  1.51E-07,  avg # of iterations =  2.0

     total cpu time spent up to now is      128.6 secs

     total energy              =    -608.51123370 Ry
     estimated scf accuracy    <       0.00000208 Ry

     iteration #  6     ecut=   100.00 Ry     beta= 0.50
     Davidson diagonalization with overlap
     ethr =  3.25E-09,  avg # of iterations =  2.0

     total cpu time spent up to now is      132.2 secs

     total energy              =    -608.51123356 Ry
     estimated scf accuracy    <       0.00000110 Ry

     iteration #  7     ecut=   100.00 Ry     beta= 0.50
     Davidson diagonalization with overlap
     ethr =  1.72E-09,  avg # of iterations =  1.0

     total cpu time spent up to now is      135.5 secs

     total energy              =    -608.51123328 Ry
     estimated scf accuracy    <       0.00000051 Ry

     iteration #  8     ecut=   100.00 Ry     beta= 0.50
     Davidson diagonalization with overlap
     ethr =  8.01E-10,  avg # of iterations =  2.0

     total cpu time spent up to now is      139.9 secs

     End of self-consistent calculation

          k = 0.0000 0.0000 0.0000 (  8409 PWs)   bands (ev):

   -63.7176 -63.7039 -63.7039 -63.7039 -30.5561 -30.5561 -30.5561 -30.5053
   -30.5053 -30.5053 -30.5053 -30.5053 -30.5053 -30.4725 -30.4725 -30.4725
    -8.8620  -7.2137  -7.2137  -7.2137   4.3260   4.3260   4.3260   7.1283
     7.1283   7.1283   7.1283   7.1283   7.1283   8.5125   8.5125   8.5125
    13.6472  17.7879  17.7879  18.9314  18.9314  18.9314

          k = 0.0000 0.0000 0.2024 (  8501 PWs)   bands (ev):

   -63.7163 -63.7052 -63.7039 -63.7039 -30.5512 -30.5512 -30.5491 -30.5101
   -30.5101 -30.5061 -30.5061 -30.5021 -30.5021 -30.4815 -30.4756 -30.4756
    -8.7086  -7.3736  -7.1893  -7.1893   4.5225   4.5225   4.5661   6.7477
     6.7477   6.9727   6.9727   7.2400   7.2400   7.7955   8.3548   8.3548
    14.4668  18.1261  18.4070  18.4070  18.7872  19.5267

          k = 0.0000 0.0000 0.4048 (  8542 PWs)   bands (ev):

   -63.7128 -63.7086 -63.7039 -63.7039 -30.5384 -30.5384 -30.5298 -30.5227
   -30.5227 -30.5075 -30.5075 -30.5040 -30.4939 -30.4939 -30.4837 -30.4837
    -8.3020  -7.7913  -7.1493  -7.1493   5.0856   5.0856   5.2959   5.9127
     5.9127   6.4628   6.7322   6.7322   7.5495   7.5495   7.9724   7.9724
    16.1239  17.7846  19.1356  19.7693  19.7693  20.8320

          k =-0.0000 0.2024 0.0000 (  8501 PWs)   bands (ev):

   -63.7163 -63.7052 -63.7039 -63.7039 -30.5512 -30.5512 -30.5491 -30.5101
[...]
   -30.4999 -30.4923 -30.4923 -30.4822 -30.4813 -30.4799 -30.4799 -30.4731
    -7.7878  -7.4746  -7.4746  -7.3275   4.3575   4.4601   4.4601   4.8224
     6.5681   6.9930   6.9930   7.5762   7.6598   7.7015   7.7015   8.0110
    16.9681  17.8932  17.8932  18.2453  20.8927  20.8927

          k = 0.2024 0.4049-0.4049 (  8211 PWs)   bands (ev):

   -63.7034 -63.7010 -63.7010 -63.6999 -30.5509 -30.5483 -30.5483 -30.5396
   -30.4999 -30.4923 -30.4923 -30.4822 -30.4813 -30.4799 -30.4799 -30.4731
    -7.7878  -7.4746  -7.4746  -7.3275   4.3575   4.4601   4.4601   4.8224
     6.5681   6.9930   6.9930   7.5762   7.6598   7.7015   7.7015   8.0110
    16.9681  17.8932  17.8932  18.2453  20.8927  20.8927

          k = 0.2024 0.4049-0.2024 (  8204 PWs)   bands (ev):

   -63.7053 -63.7019 -63.6991 -63.6991 -30.5436 -30.5436 -30.5373 -30.5218
   -30.5078 -30.5078 -30.4886 -30.4886 -30.4879 -30.4848 -30.4766 -30.4744
    -8.0665  -7.6351  -7.2554  -7.2554   4.6620   4.6620   4.8874   5.5603
     6.2099   6.2099   7.2357   7.3529   7.3529   7.6175   7.9451   7.9630
    16.5302  17.8830  18.9496  18.9496  20.1154  20.8215

          k = 0.2024-0.4049-0.0000 (  8212 PWs)   bands (ev):

   -63.7061 -63.7022 -63.6988 -63.6984 -30.5363 -30.5293 -30.5284 -30.5270
   -30.5132 -30.5095 -30.4933 -30.4923 -30.4918 -30.4842 -30.4816 -30.4730
    -8.1775  -7.7049  -7.2395  -7.1814   4.9349   5.1592   5.2693   5.4075
     6.0534   6.0743   7.0938   7.2171   7.2369   7.5979   7.7270   8.0890
    16.4632  18.0661  19.4276  19.5372  19.9215  19.9688

          k = 0.2024-0.4049 0.2024 (  8204 PWs)   bands (ev):

   -63.7053 -63.7019 -63.6991 -63.6991 -30.5436 -30.5436 -30.5373 -30.5218
   -30.5078 -30.5078 -30.4886 -30.4886 -30.4879 -30.4848 -30.4766 -30.4744
    -8.0665  -7.6351  -7.2554  -7.2554   4.6620   4.6620   4.8874   5.5603
     6.2099   6.2099   7.2357   7.3529   7.3529   7.6175   7.9451   7.9630
    16.5302  17.8830  18.9496  18.9496  20.1154  20.8215

          k = 0.2024-0.4049 0.4049 (  8211 PWs)   bands (ev):

   -63.7034 -63.7010 -63.7010 -63.6999 -30.5509 -30.5483 -30.5483 -30.5396
   -30.4999 -30.4923 -30.4923 -30.4822 -30.4813 -30.4799 -30.4799 -30.4731
    -7.7878  -7.4746  -7.4746  -7.3275   4.3575   4.4601   4.4601   4.8224
     6.5681   6.9930   6.9930   7.5762   7.6598   7.7015   7.7015   8.0110
    16.9681  17.8932  17.8932  18.2453  20.8927  20.8927

          k = 0.2024-0.4049-0.4049 (  8211 PWs)   bands (ev):

   -63.7034 -63.7010 -63.7010 -63.6999 -30.5509 -30.5483 -30.5483 -30.5396
   -30.4999 -30.4923 -30.4923 -30.4822 -30.4813 -30.4799 -30.4799 -30.4731
    -7.7878  -7.4746  -7.4746  -7.3275   4.3575   4.4601   4.4601   4.8224
     6.5681   6.9930   6.9930   7.5762   7.6598   7.7015   7.7015   8.0110
    16.9681  17.8932  17.8932  18.2453  20.8927  20.8927

          k = 0.2024-0.4049-0.2024 (  8204 PWs)   bands (ev):

   -63.7053 -63.7019 -63.6991 -63.6991 -30.5436 -30.5436 -30.5373 -30.5218
   -30.5078 -30.5078 -30.4886 -30.4886 -30.4879 -30.4848 -30.4766 -30.4744
    -8.0665  -7.6351  -7.2554  -7.2554   4.6620   4.6620   4.8874   5.5603
     6.2099   6.2099   7.2357   7.3529   7.3529   7.6175   7.9451   7.9630
    16.5302  17.8830  18.9496  18.9496  20.1154  20.8215

          k = 0.2024-0.2024-0.0000 (  8240 PWs)   bands (ev):

   -63.7092 -63.6991 -63.6991 -63.6980 -30.5416 -30.5416 -30.5407 -30.5146
   -30.5009 -30.5009 -30.4955 -30.4955 -30.4941 -30.4883 -30.4730 -30.4675
    -8.5601  -7.3274  -7.3274  -7.1770   4.6641   4.6641   4.7184   6.1115
     6.8801   6.8801   7.1373   7.1584   7.1584   7.2667   8.1739   8.3932
    15.0690  18.6158  18.6991  18.6991  19.2605  19.2605

          k = 0.2024-0.2024 0.2024 (  8199 PWs)   bands (ev):

   -63.7081 -63.6991 -63.6991 -63.6991 -30.5422 -30.5422 -30.5422 -30.5050
   -30.5050 -30.5050 -30.5012 -30.4915 -30.4915 -30.4915 -30.4700 -30.4700
    -8.4231  -7.3001  -7.3001  -7.3001   4.6765   4.6765   4.6765   6.4853
     6.4853   6.4853   6.5185   7.3603   7.3603   7.3603   8.2691   8.2691
    15.4591  18.6263  18.6263  18.6263  20.0099  20.0099

          k = 0.2024-0.2024 0.4049 (  8204 PWs)   bands (ev):

   -63.7053 -63.7019 -63.6991 -63.6991 -30.5436 -30.5436 -30.5373 -30.5218
   -30.5078 -30.5078 -30.4886 -30.4886 -30.4879 -30.4848 -30.4766 -30.4744
    -8.0665  -7.6351  -7.2554  -7.2554   4.6620   4.6620   4.8874   5.5603
     6.2099   6.2099   7.2357   7.3529   7.3529   7.6175   7.9451   7.9630
    16.5302  17.8830  18.9496  18.9496  20.1154  20.8215

          k = 0.2024-0.2024-0.4049 (  8204 PWs)   bands (ev):

   -63.7053 -63.7019 -63.6991 -63.6991 -30.5436 -30.5436 -30.5373 -30.5218
   -30.5078 -30.5078 -30.4886 -30.4886 -30.4879 -30.4848 -30.4766 -30.4744
    -8.0665  -7.6351  -7.2554  -7.2554   4.6620   4.6620   4.8874   5.5603
     6.2099   6.2099   7.2357   7.3529   7.3529   7.6175   7.9451   7.9630
    16.5302  17.8830  18.9496  18.9496  20.1154  20.8215

          k = 0.2024-0.2024-0.2024 (  8199 PWs)   bands (ev):

   -63.7081 -63.6991 -63.6991 -63.6991 -30.5422 -30.5422 -30.5422 -30.5050
   -30.5050 -30.5050 -30.5012 -30.4915 -30.4915 -30.4915 -30.4700 -30.4700
    -8.4231  -7.3001  -7.3001  -7.3001   4.6765   4.6765   4.6765   6.4853
     6.4853   6.4853   6.5185   7.3603   7.3603   7.3603   8.2691   8.2691
    15.4591  18.6263  18.6263  18.6263  20.0099  20.0099

          k = 0.4049-0.0000-0.0000 (  8221 PWs)   bands (ev):

   -63.7069 -63.7027 -63.6979 -63.6979 -30.5327 -30.5327 -30.5240 -30.5169
   -30.5169 -30.5017 -30.5017 -30.4982 -30.4880 -30.4880 -30.4779 -30.4779
    -8.2989  -7.7879  -7.1455  -7.1455   5.0890   5.0890   5.2995   5.9163
     5.9163   6.4669   6.7361   6.7361   7.5537   7.5538   7.9768   7.9768
    16.1324  17.7933  19.1411  19.7759  19.7759  21.0324

          k = 0.4049-0.0000 0.2024 (  8212 PWs)   bands (ev):

   -63.7061 -63.7022 -63.6988 -63.6984 -30.5363 -30.5293 -30.5284 -30.5270
   -30.5132 -30.5095 -30.4933 -30.4923 -30.4918 -30.4842 -30.4816 -30.4730
    -8.1775  -7.7049  -7.2395  -7.1814   4.9349   5.1592   5.2693   5.4075
     6.0534   6.0743   7.0938   7.2171   7.2369   7.5979   7.7270   8.0890
    16.4632  18.0661  19.4276  19.5372  19.9215  19.9688

          k = 0.4049-0.0000 0.4049 (  8188 PWs)   bands (ev):

   -63.7038 -63.7010 -63.7010 -63.6995 -30.5364 -30.5364 -30.5362 -30.5263
   -30.5172 -30.5034 -30.5034 -30.4913 -30.4823 -30.4801 -30.4801 -30.4721
    -7.8675  -7.5062  -7.5062  -7.3038   4.9249   4.9249   4.9517   5.3552
     5.7812   6.5179   6.5179   7.1409   7.6208   7.6805   7.6805   8.0549
    17.3519  18.6017  18.6017  19.0196  20.2947  20.2947

          k = 0.4049-0.0000-0.4049 (  8188 PWs)   bands (ev):

   -63.7038 -63.7010 -63.7010 -63.6995 -30.5364 -30.5364 -30.5362 -30.5263
   -30.5172 -30.5034 -30.5034 -30.4913 -30.4823 -30.4801 -30.4801 -30.4721
    -7.8675  -7.5062  -7.5062  -7.3038   4.9249   4.9249   4.9517   5.3552
     5.7812   6.5179   6.5179   7.1409   7.6208   7.6805   7.6805   8.0549
    17.3519  18.6017  18.6017  19.0196  20.2947  20.2947

          k = 0.4049-0.0000-0.2024 (  8212 PWs)   bands (ev):

   -63.7061 -63.7022 -63.6988 -63.6984 -30.5363 -30.5293 -30.5284 -30.5270
   -30.5132 -30.5095 -30.4933 -30.4923 -30.4918 -30.4842 -30.4816 -30.4730
    -8.1775  -7.7049  -7.2395  -7.1814   4.9349   5.1592   5.2693   5.4075
     6.0534   6.0743   7.0938   7.2171   7.2369   7.5979   7.7270   8.0890
    16.4632  18.0661  19.4276  19.5372  19.9215  19.9688

          k = 0.4049 0.2024 0.0000 (  8212 PWs)   bands (ev):

   -63.7061 -63.7022 -63.6988 -63.6984 -30.5363 -30.5293 -30.5284 -30.5270
   -30.5132 -30.5095 -30.4933 -30.4923 -30.4918 -30.4842 -30.4816 -30.4730
    -8.1775  -7.7049  -7.2395  -7.1814   4.9349   5.1592   5.2693   5.4075
     6.0534   6.0743   7.0938   7.2171   7.2369   7.5979   7.7270   8.0890
    16.4632  18.0661  19.4276  19.5372  19.9215  19.9688

          k = 0.4049 0.2024 0.2024 (  8204 PWs)   bands (ev):

   -63.7053 -63.7019 -63.6991 -63.6991 -30.5436 -30.5436 -30.5373 -30.5218
   -30.5078 -30.5078 -30.4886 -30.4886 -30.4879 -30.4848 -30.4766 -30.4744
    -8.0665  -7.6351  -7.2554  -7.2554   4.6620   4.6620   4.8874   5.5603
     6.2099   6.2099   7.2357   7.3529   7.3529   7.6175   7.9451   7.9630
    16.5302  17.8830  18.9496  18.9496  20.1154  20.8215

          k = 0.4049 0.2024 0.4049 (  8211 PWs)   bands (ev):

   -63.7034 -63.7010 -63.7010 -63.6999 -30.5509 -30.5483 -30.5483 -30.5396
   -30.4999 -30.4923 -30.4923 -30.4822 -30.4813 -30.4799 -30.4799 -30.4731
    -7.7878  -7.4746  -7.4746  -7.3275   4.3575   4.4601   4.4601   4.8224
     6.5681   6.9930   6.9930   7.5762   7.6598   7.7015   7.7015   8.0110
    16.9681  17.8932  17.8932  18.2453  20.8927  20.8929

          k = 0.4049 0.2024-0.4049 (  8211 PWs)   bands (ev):

   -63.7034 -63.7010 -63.7010 -63.6999 -30.5509 -30.5483 -30.5483 -30.5396
   -30.4999 -30.4923 -30.4923 -30.4822 -30.4813 -30.4799 -30.4799 -30.4731
    -7.7878  -7.4746  -7.4746  -7.3275   4.3575   4.4601   4.4601   4.8224
     6.5681   6.9930   6.9930   7.5762   7.6598   7.7015   7.7015   8.0110
    16.9681  17.8932  17.8932  18.2453  20.8927  20.8930

          k = 0.4049 0.2024-0.2024 (  8204 PWs)   bands (ev):

   -63.7053 -63.7019 -63.6991 -63.6991 -30.5436 -30.5436 -30.5373 -30.5218
   -30.5078 -30.5078 -30.4886 -30.4886 -30.4879 -30.4848 -30.4766 -30.4744
    -8.0665  -7.6351  -7.2554  -7.2554   4.6620   4.6620   4.8874   5.5603
     6.2099   6.2099   7.2357   7.3529   7.3529   7.6175   7.9451   7.9630
    16.5302  17.8830  18.9496  18.9496  20.1154  20.8215

          k = 0.4049 0.4049 0.0000 (  8188 PWs)   bands (ev):

   -63.7038 -63.7010 -63.7010 -63.6995 -30.5364 -30.5364 -30.5362 -30.5263
   -30.5172 -30.5034 -30.5034 -30.4913 -30.4823 -30.4801 -30.4801 -30.4721
    -7.8675  -7.5062  -7.5062  -7.3038   4.9249   4.9249   4.9517   5.3552
     5.7812   6.5179   6.5179   7.1409   7.6208   7.6805   7.6805   8.0549
    17.3519  18.6017  18.6017  19.0196  20.2947  20.8043

          k = 0.4049 0.4049 0.2024 (  8211 PWs)   bands (ev):

   -63.7034 -63.7010 -63.7010 -63.6999 -30.5509 -30.5483 -30.5483 -30.5396
   -30.4999 -30.4923 -30.4923 -30.4822 -30.4813 -30.4799 -30.4799 -30.4731
    -7.7878  -7.4746  -7.4746  -7.3275   4.3575   4.4601   4.4601   4.8224
     6.5681   6.9930   6.9930   7.5762   7.6598   7.7015   7.7015   8.0110
    16.9681  17.8932  17.8932  18.2453  20.8927  20.8927

          k = 0.4049 0.4049 0.4049 (  8207 PWs)   bands (ev):

   -63.7023 -63.7010 -63.7010 -63.7010 -30.5612 -30.5612 -30.5612 -30.5565
   -30.4819 -30.4819 -30.4819 -30.4787 -30.4787 -30.4787 -30.4756 -30.4756
    -7.6012  -7.4228  -7.4228  -7.4228   3.9481   3.9481   3.9481   4.1417
     7.4968   7.4968   7.4968   7.7642   7.7642   7.7642   7.8984   7.8984
    16.6624  17.1581  17.1581  17.1581  21.4110  21.4110

          k = 0.4049 0.4049-0.4049 (  8207 PWs)   bands (ev):

   -63.7023 -63.7010 -63.7010 -63.7010 -30.5612 -30.5612 -30.5612 -30.5565
   -30.4819 -30.4819 -30.4819 -30.4787 -30.4787 -30.4787 -30.4756 -30.4756
    -7.6012  -7.4228  -7.4228  -7.4228   3.9481   3.9481   3.9481   4.1417
     7.4968   7.4968   7.4968   7.7642   7.7642   7.7642   7.8984   7.8984
    16.6624  17.1581  17.1581  17.1581  21.4110  21.4110

          k = 0.4049 0.4049-0.2024 (  8211 PWs)   bands (ev):

   -63.7034 -63.7010 -63.7010 -63.6999 -30.5509 -30.5483 -30.5483 -30.5396
   -30.4999 -30.4923 -30.4923 -30.4822 -30.4813 -30.4799 -30.4799 -30.4731
    -7.7878  -7.4746  -7.4746  -7.3275   4.3575   4.4601   4.4601   4.8224
     6.5681   6.9930   6.9930   7.5762   7.6598   7.7015   7.7015   8.0110
    16.9681  17.8932  17.8932  18.2453  20.8927  20.8927

          k = 0.4049-0.4049-0.0000 (  8188 PWs)   bands (ev):

   -63.7038 -63.7010 -63.7010 -63.6995 -30.5364 -30.5364 -30.5362 -30.5263
   -30.5172 -30.5034 -30.5034 -30.4913 -30.4823 -30.4801 -30.4801 -30.4721
    -7.8675  -7.5062  -7.5062  -7.3038   4.9249   4.9249   4.9517   5.3552
     5.7812   6.5179   6.5179   7.1409   7.6208   7.6805   7.6805   8.0549
    17.3519  18.6017  18.6017  19.0196  20.2947  20.2947

          k = 0.4049-0.4049 0.2024 (  8211 PWs)   bands (ev):

   -63.7034 -63.7010 -63.7010 -63.6999 -30.5509 -30.5483 -30.5483 -30.5396
   -30.4999 -30.4923 -30.4923 -30.4822 -30.4813 -30.4799 -30.4799 -30.4731
    -7.7878  -7.4746  -7.4746  -7.3275   4.3575   4.4601   4.4601   4.8224
     6.5681   6.9930   6.9930   7.5762   7.6598   7.7015   7.7015   8.0110
    16.9681  17.8932  17.8932  18.2453  20.8927  20.8927

          k = 0.4049-0.4049 0.4049 (  8207 PWs)   bands (ev):

   -63.7023 -63.7010 -63.7010 -63.7010 -30.5612 -30.5612 -30.5612 -30.5565
   -30.4819 -30.4819 -30.4819 -30.4787 -30.4787 -30.4787 -30.4756 -30.4756
    -7.6012  -7.4228  -7.4228  -7.4228   3.9481   3.9481   3.9481   4.1417
     7.4968   7.4968   7.4968   7.7642   7.7642   7.7642   7.8984   7.8984
    16.6624  17.1581  17.1581  17.1581  21.4110  21.4110

          k = 0.4049-0.4049-0.4049 (  8207 PWs)   bands (ev):

   -63.7023 -63.7010 -63.7010 -63.7010 -30.5612 -30.5612 -30.5612 -30.5565
   -30.4819 -30.4819 -30.4819 -30.4787 -30.4787 -30.4787 -30.4756 -30.4756
    -7.6012  -7.4228  -7.4228  -7.4228   3.9481   3.9481   3.9481   4.1417
     7.4968   7.4968   7.4968   7.7642   7.7642   7.7642   7.8984   7.8984
    16.6624  17.1581  17.1581  17.1581  21.4110  21.4110

          k = 0.4049-0.4049-0.2024 (  8211 PWs)   bands (ev):

   -63.7034 -63.7010 -63.7010 -63.6999 -30.5509 -30.5483 -30.5483 -30.5396
   -30.4999 -30.4923 -30.4923 -30.4822 -30.4813 -30.4799 -30.4799 -30.4731
    -7.7878  -7.4746  -7.4746  -7.3275   4.3575   4.4601   4.4601   4.8224
     6.5681   6.9930   6.9930   7.5762   7.6598   7.7015   7.7015   8.0110
    16.9681  17.8932  17.8932  18.2453  20.8927  20.8928

          k = 0.4049-0.2024-0.0000 (  8212 PWs)   bands (ev):

   -63.7061 -63.7022 -63.6988 -63.6984 -30.5363 -30.5293 -30.5284 -30.5270
   -30.5132 -30.5095 -30.4933 -30.4923 -30.4918 -30.4842 -30.4816 -30.4730
    -8.1775  -7.7049  -7.2395  -7.1814   4.9349   5.1592   5.2693   5.4075
     6.0534   6.0743   7.0938   7.2171   7.2369   7.5979   7.7270   8.0890
    16.4632  18.0661  19.4276  19.5372  19.9215  19.9688

          k = 0.4049-0.2024 0.2024 (  8204 PWs)   bands (ev):

   -63.7053 -63.7019 -63.6991 -63.6991 -30.5436 -30.5436 -30.5373 -30.5218
   -30.5078 -30.5078 -30.4886 -30.4886 -30.4879 -30.4848 -30.4766 -30.4744
    -8.0665  -7.6351  -7.2554  -7.2554   4.6620   4.6620   4.8874   5.5603
     6.2099   6.2099   7.2357   7.3529   7.3529   7.6175   7.9451   7.9630
    16.5302  17.8830  18.9496  18.9496  20.1154  20.8215

          k = 0.4049-0.2024 0.4049 (  8211 PWs)   bands (ev):

   -63.7034 -63.7010 -63.7010 -63.6999 -30.5509 -30.5483 -30.5483 -30.5396
   -30.4999 -30.4923 -30.4923 -30.4822 -30.4813 -30.4799 -30.4799 -30.4731
    -7.7878  -7.4746  -7.4746  -7.3275   4.3575   4.4601   4.4601   4.8224
     6.5681   6.9930   6.9930   7.5762   7.6598   7.7015   7.7015   8.0110
    16.9681  17.8932  17.8932  18.2453  20.8927  20.8927

          k = 0.4049-0.2024-0.4049 (  8211 PWs)   bands (ev):

   -63.7034 -63.7010 -63.7010 -63.6999 -30.5509 -30.5483 -30.5483 -30.5396
   -30.4999 -30.4923 -30.4923 -30.4822 -30.4813 -30.4799 -30.4799 -30.4731
    -7.7878  -7.4746  -7.4746  -7.3275   4.3575   4.4601   4.4601   4.8224
     6.5681   6.9930   6.9930   7.5762   7.6598   7.7015   7.7015   8.0110
    16.9681  17.8932  17.8932  18.2453  20.8927  21.1633

          k = 0.4049-0.2024-0.2024 (  8204 PWs)   bands (ev):

   -63.7053 -63.7019 -63.6991 -63.6991 -30.5436 -30.5436 -30.5373 -30.5218
   -30.5078 -30.5078 -30.4886 -30.4886 -30.4879 -30.4848 -30.4766 -30.4744
    -8.0665  -7.6351  -7.2554  -7.2554   4.6620   4.6620   4.8874   5.5603
     6.2099   6.2099   7.2357   7.3529   7.3529   7.6175   7.9451   7.9630
    16.5302  17.8830  18.9496  18.9496  20.1154  20.8215

     the Fermi energy is    10.8727 ev

!    total energy              =    -608.51112632 Ry
     estimated scf accuracy    <          6.4E-10 Ry
     smearing contrib. (-TS)   =      -0.00000000 Ry
     internal energy E=F+TS    =    -608.51112632 Ry

     The total energy is F=E-TS. E is the sum of the following terms:
     one-electron contribution =    -290.17739084 Ry
     hartree contribution      =     163.69177155 Ry
     xc contribution           =     -98.14370238 Ry
     ewald contribution        =    -383.76932903 Ry
     DFT-D3 Dispersion         =      -0.11247562 Ry

     convergence has been achieved in  11 iterations

     Forces acting on atoms (cartesian axes, Ry/au):

     atom    1 type  1   force =    -0.00000001   -0.00000007    0.00000004
     atom    2 type  1   force =    -0.00000000   -0.00000005    0.00000002
     atom    3 type  1   force =     0.00000003    0.00000001    0.00000002
     atom    4 type  1   force =     0.00000003    0.00000015   -0.00000006
     atom    5 type  2   force =    -0.00000001   -0.00000003    0.00000005
     atom    6 type  2   force =     0.00000006   -0.00000008   -0.00000002
     atom    7 type  2   force =    -0.00000002    0.00000005    0.00000003
     atom    8 type  2   force =    -0.00000007    0.00000001   -0.00000008

     Total force =     0.000000     Total SCF correction =     0.000000
     SCF correction compared to forces is large: reduce conv_thr to get better values


     Computing stress (Cartesian axis) and pressure

          total   stress  (Ry/bohr**3)                   (kbar)     P=       75.18
   0.00051110  -0.00000000   0.00000000           75.18       -0.00        0.00
  -0.00000000   0.00051110  -0.00000000           -0.00       75.19       -0.00
   0.00000000  -0.00000000   0.00051110            0.00       -0.00       75.19

 
     init_run     :      3.54s CPU      3.68s WALL (       2 calls)
     electrons    :    198.31s CPU    202.74s WALL (       5 calls)
     update_pot   :      1.18s CPU      1.19s WALL (       3 calls)
     forces       :     25.16s CPU     25.28s WALL (       5 calls)
     stress       :     28.28s CPU     28.42s WALL (       5 calls)

     Called by init_run:
     wfcinit      :      2.75s CPU      2.88s WALL (       2 calls)
     potinit      :      0.30s CPU      0.30s WALL (       2 calls)
     hinit0       :      0.45s CPU      0.46s WALL (       2 calls)

     Called by electrons:
     c_bands      :    155.39s CPU    159.10s WALL (      43 calls)
     sum_band     :     24.63s CPU     25.26s WALL (      43 calls)
     v_of_rho     :      0.38s CPU      0.40s WALL (      47 calls)
     mix_rho      :      0.06s CPU      0.06s WALL (      43 calls)

     Called by c_bands:
     init_us_2    :      2.03s CPU      2.13s WALL (    6174 calls)
     cegterg      :    149.42s CPU    152.76s WALL (    2709 calls)

     Called by *egterg:
     cdiaghg      :     16.83s CPU     16.99s WALL (    9782 calls)
     h_psi        :    123.03s CPU    126.21s WALL (   10160 calls)
     g_psi        :      0.43s CPU      0.43s WALL (    7325 calls)

     Called by h_psi:
     h_psi:calbec :      4.02s CPU      4.11s WALL (   10160 calls)
     vloc_psi     :    115.25s CPU    118.28s WALL (   10160 calls)
     add_vuspsi   :      3.27s CPU      3.32s WALL (   10160 calls)

     General routines
     calbec       :      4.87s CPU      4.98s WALL (   11735 calls)
     fft          :      0.51s CPU      0.53s WALL (     594 calls)
     ffts         :      0.02s CPU      0.02s WALL (      43 calls)
     fftw         :    130.40s CPU    133.79s WALL (  630442 calls)
 
     Parallel routines
     fft_scatt_xy :     17.44s CPU     17.90s WALL (  631079 calls)
     fft_scatt_yz :     67.97s CPU     69.79s WALL (  631079 calls)
 
     PWSCF        :   4m16.63s CPU   4m21.50s WALL

 
   This run was terminated on:  13:39:11   4Feb2024            

=------------------------------------------------------------------------------=
   JOB DONE.
=------------------------------------------------------------------------------=
