# total energy = -44005.4523585 eV	

CRYSTAL	
PRIMVEC	
		9.81800160		-1.17815782		0.00000000	
		-2.16563691		18.04700061		0.00000000	
		-1.33411825		0.16009379		5.10350141	
PRIMCOORD
   82 1	
Si		2.17562027		1.23304359		1.51267870		-0.00015216		-0.00024303		 0.00060767	
Si		4.14261925		15.79589201		3.59082469		 0.00015216		 0.00024303		-0.00060767	
Si		5.94443189		0.78078703		3.59082469		 0.00059991		 0.00060024		 0.00013237	
Si		0.37380764		16.24814857		1.51267870		-0.00059991		-0.00060024		-0.00013237	
Si		6.00179965		9.66746399		1.51267870		-0.00031916		-0.00000522		 0.00058572	
Si		0.31643888		7.36147061		3.59082469		 0.00031916		 0.00000522		-0.00058572	
Si		-0.04738836		10.39336723		3.59082469		 0.00060364		 0.00043360		 0.00011896	
Si		6.36562788		6.63556837		1.51267870		-0.00060364		-0.00043360		-0.00011896	
Si		1.39101631		2.87645533		4.10423827		 0.00001589		 0.00021447		 0.00012864	
Si		4.92722420		14.15248026		0.99926611		-0.00001589		-0.00021447		-0.00012864	
Si		6.35178209		2.28116253		0.99926611		 0.00059444		 0.00019681		-0.00002582	
Si		-0.03354158		14.74777208		4.10423827		-0.00059444		-0.00019681		 0.00002582	
Si		5.21719569		11.31087574		4.10423827		 0.00025120		 0.00041074		 0.00010878	
Si		1.10104284		5.71805986		0.99926611		-0.00025120		-0.00041074		-0.00010878	
Si		0.35996086		11.89374372		0.99926611		 0.00058894		 0.00045422		 0.00001593	
Si		5.95827768		5.13519089		4.10423827		-0.00058894		-0.00045422		-0.00001593	
O		2.33183978		1.82795272		3.00290174		-0.00063205		-0.00027249		 0.00083468	
O		3.98639876		15.20098189		2.10060165		 0.00063205		 0.00027249		-0.00083468	
O		5.63878327		1.43111986		2.10060165		-0.00008913		-0.00078439		-0.00023131	
O		0.67945725		15.59781475		3.00290174		 0.00008913		 0.00078439		 0.00023131	
O		6.15802015		10.26237411		3.00290174		-0.00067160		-0.00027273		 0.00081236	
O		0.16022037		6.76656247		2.10060165		 0.00067160		 0.00027273		-0.00081236	
O		-0.35303698		11.04370105		2.10060165		-0.00012958		-0.00078874		-0.00018705	
O		6.67127749		5.98523455		3.00290174		 0.00012958		 0.00078874		 0.00018705	
O		0.62078816		1.45519820		1.10797068		 0.00021395		 0.00007287		-0.00043822	
O		5.69745235		15.57373739		3.99553271		-0.00021395		-0.00007287		 0.00043822	
O		7.49060173		0.63082097		3.99553271		 0.00094216		 0.00005589		 0.00000381	
O		-1.17236221		16.39811364		1.10797068		-0.00094216		-0.00005589		-0.00000381	
O		4.44696754		9.88961861		1.10797068		 0.00026204		 0.00011197		-0.00045592	
O		1.87127198		7.13931699		3.99553271		-0.00026204		-0.00011197		 0.00045592	
O		1.49878248		10.24340117		3.99553271		 0.00093485		 0.00007704		-0.00004285	
O		4.81945804		6.78553442		1.10797068		-0.00093485		-0.00007704		 0.00004285	
O		1.99206122		4.17215898		4.04860889		 0.00055059		 0.00091010		-0.00000132	
O		4.32617929		12.85677464		1.05489351		-0.00055059		-0.00091010		 0.00000132	
O		5.41766200		3.76108677		1.05489351		-0.00040806		 0.00021592		-0.00003711	
O		0.90057753		13.26784685		4.04860889		 0.00040806		-0.00021592		 0.00003711	
O		5.81823961		12.60658037		4.04860889		 0.00046458		 0.00070521		 0.00002009	
O		0.49999893		4.42235522		1.05489351		-0.00046458		-0.00070521		-0.00002009	
O		-0.57415924		13.37366796		1.05489351		-0.00032432		 0.00009199		 0.00006841	
O		6.89239777		3.65526764		4.04860889		 0.00032432		-0.00009199		-0.00006841	
O		2.91896968		-0.35027612		1.49073329		-0.00014761		 0.00065231		-0.00017794	
O		5.56490972		-0.66778889		3.61277010		 0.00014761		-0.00065231		 0.00017794	
O		6.74514906		8.08414428		1.49073329		-0.00016771		 0.00027218		-0.00013096	
O		-0.42690953		8.94479131		3.61277010		 0.00016771		-0.00027218		 0.00013096	
O		-0.17322762		3.06594349		3.69493708		 0.00039265		 0.00000260		 0.00016439	
O		6.49146714		13.96299210		1.40856730		-0.00039265		-0.00000260		-0.00016439	
O		7.91559192		2.09528464		1.40856730		 0.00056946		 0.00041483		 0.00065283	
O		-1.59735239		14.93364997		3.69493708		-0.00056946		-0.00041483		-0.00065283	
O		3.65295176		11.50036390		3.69493708		 0.00024407		 0.00003133		 0.00015940	
O		2.66528677		5.52857169		1.40856730		-0.00024407		-0.00003133		-0.00015940	
O		1.92377167		11.70786583		1.40856730		 0.00060577		 0.00037845		 0.00064693	
O		4.39446686		5.32106977		3.69493708		-0.00060577		-0.00037845		-0.00064693	
O		0.12188982		-0.01462698		3.65002578		-0.00026015		-0.00009517		-0.00049071	
O		8.36198958		-1.00343903		1.45347761		 0.00026015		 0.00009517		 0.00049071	
O		3.94807019		8.41979442		3.65002578		-0.00026475		-0.00011330		-0.00052681	
O		2.37017033		8.60914216		1.45347761		 0.00026475		 0.00011330		 0.00052681	
O		2.97874726		2.03136083		0.50626819		-0.00055968		 0.00049471		-0.00011842	
O		3.33949227		14.99757377		4.59723618		 0.00055968		-0.00049471		 0.00011842	
O		4.92344187		1.79799768		4.59723618		-0.00031989		 0.00009636		-0.00014713	
O		1.39479765		15.23093792		0.50626819		 0.00031989		-0.00009636		 0.00014713	
O		6.80492664		10.46578124		0.50626819		-0.00062372		 0.00050301		-0.00013760	
O		-0.48668711		6.56315435		4.59723618		 0.00062372		-0.00050301		 0.00013760	
O		-1.06837837		11.41057788		4.59723618		-0.00032362		 0.00003465		-0.00021392	
O		7.38661790		5.61835672		0.50626819		 0.00032362		-0.00003465		 0.00021392	
Ca		-1.26824247		5.08989393		2.55175169		 0.00024095		-0.00042241		 0.00019792	
Ca		-2.23151862		13.11720146		2.55175169		-0.00024095		 0.00042241		-0.00019792	
Ca		2.55793790		13.52431533		2.55175169		 0.00020290		-0.00035053		 0.00022400	
Ca		3.76030064		3.50462027		2.55175169		-0.00020290		 0.00035053		-0.00022400	
Mg		0.00000000		0.00000000		0.00000000		0.00000000		0.00000000		0.00000000	
Mg		3.82618037		8.43442041		0.00000000		0.00000000		0.00000000		0.00000000	
Mg		-0.38245211		3.18709959		0.00000000		 0.00025376		 0.00040725		 0.00040368	
Mg		-1.78318777		14.85990102		0.00000000		-0.00025376		-0.00040725		-0.00040368	
Mg		3.44372826		11.62152000		0.00000000		 0.00024978		 0.00048888		 0.00042782	
Mg		4.20863248		5.24731983		0.00000000		-0.00024978		-0.00048888		-0.00042782	
Mg		-0.85720289		1.66457399		2.55175169		-0.00049121		-0.00020038		 0.00044872	
Mg		-2.64255721		16.54252140		2.55175169		 0.00049121		 0.00020038		-0.00044872	
Mg		2.96897748		10.09899538		2.55175169		-0.00039163		-0.00021408		 0.00042739	
Mg		3.34926303		6.92994120		2.55175169		 0.00039163		 0.00021408		-0.00042739	
H		0.92650897		-0.11118064		3.92969846		 0.00079934		 0.00016715		 0.00025642	
H		7.55737044		-0.90688437		1.17380592		-0.00079934		-0.00016715		-0.00025642	
H		4.75268933		8.32323878		3.92969846		 0.00083258		 0.00020348		 0.00026410	
H		1.56555019		8.70569583		1.17380592		-0.00083258		-0.00020348		-0.00026410	
