# total energy = -44000.8259723 eV	

CRYSTAL	
PRIMVEC	
		9.81800346		1.57088493		0.00000000	
		2.88752057		18.04699613		0.00000000	
		-1.33411522		-0.21346361		5.10349930	
PRIMCOORD
   82 1	
Si		2.60008595		1.89315343		1.51267933		-0.00011192		-0.00024402		 0.00000803	
Si		8.77131392		17.51126801		3.59082494		 0.00011192		 0.00024402		-0.00000803	
Si		6.36889732		2.49616301		3.59082494		 0.00011500		 0.00016620		 0.00020950	
Si		5.00250155		16.90825743		1.51267933		-0.00011500		-0.00016620		-0.00020950	
Si		8.95284598		11.70209396		1.51267933		-0.00007701		-0.00021018		 0.00004509	
Si		2.41855389		7.70232748		3.59082494		 0.00007701		 0.00021018		-0.00004509	
Si		2.90365687		10.73422358		3.59082494		 0.00004271		 0.00022662		 0.00020325	
Si		8.46774300		8.67019785		1.51267933		-0.00004271		-0.00022662		-0.00020325	
Si		2.25561202		3.36969140		4.10423827		-0.00024661		 0.00016150		-0.00007535	
Si		9.11578784		16.03473003		0.99926600		 0.00024661		-0.00016150		 0.00007535	
Si		7.21637637		4.16341429		0.99926600		-0.00004946		 0.00006486		 0.00014680	
Si		4.15502250		15.24100814		4.10423827		 0.00004946		-0.00006486		-0.00014680	
Si		8.60837206		13.17863193		4.10423827		-0.00017254		 0.00025473		-0.00007749	
Si		2.76302781		6.22578950		0.99926600		 0.00017254		-0.00025473		 0.00007749	
Si		3.75113691		12.40147387		0.99926600		-0.00003218		 0.00008931		 0.00016121	
Si		7.62026196		7.00294657		4.10423827		 0.00003218		-0.00008931		-0.00016121	
O		2.93063985		2.55272505		3.00290169		-0.00023578		 0.00015048		-0.00003053	
O		8.44076002		16.85169639		2.10060159		 0.00023578		-0.00015048		 0.00003053	
O		6.23758175		3.08183520		2.10060159		 0.00011914		 0.00000493		 0.00005401	
O		5.13381712		16.32258524		3.00290169		-0.00011914		-0.00000493		-0.00005401	
O		9.28339988		12.36166458		3.00290169		-0.00019913		 0.00010873		-0.00009662	
O		2.08799999		7.04275685		2.10060159		 0.00019913		-0.00010873		 0.00009662	
O		2.77234230		11.31989577		2.10060159		 0.00013460		-0.00001829		 0.00005878	
O		8.59905757		8.08452567		3.00290169		-0.00013460		 0.00001829		-0.00005878	
O		1.05535973		1.68116733		1.10797147		-0.00044200		-0.00018686		 0.00029028	
O		10.31604014		17.72325410		3.99553281		 0.00044200		 0.00018686		-0.00029028	
O		7.92517318		2.78033836		3.99553281		 0.00012551		 0.00068725		 0.00008386	
O		3.44622569		16.62408407		1.10797147		-0.00012551		-0.00068725		-0.00008386	
O		7.40811976		11.49010786		1.10797147		-0.00048142		-0.00019918		 0.00028745	
O		3.96328011		7.91431357		3.99553281		 0.00048142		 0.00019918		-0.00028745	
O		4.45993372		11.01839794		3.99553281		 0.00013776		 0.00064753		 0.00008370	
O		6.91146614		8.38602350		1.10797147		-0.00013776		-0.00064753		-0.00008370	
O		3.24524437		4.88031753		4.04860887		 0.00035639		 0.00010909		-0.00038778	
O		8.12615549		14.52410291		1.05489441		-0.00035639		-0.00010909		 0.00038778	
O		6.67084457		5.42841459		1.05489441		 0.00002613		 0.00074790		 0.00012436	
O		4.70055530		13.97600684		4.04860887		-0.00002613		-0.00074790		-0.00012436	
O		9.59800341		14.68925905		4.04860887		 0.00033683		 0.00003583		-0.00037096	
O		1.77339447		4.71516337		1.05489441		-0.00033683		-0.00003583		 0.00037096	
O		3.20560511		13.66647616		1.05489441		 0.00002925		 0.00073868		 0.00015732	
O		8.16579376		5.73794726		4.04860887		-0.00002925		-0.00073868		-0.00015732	
O		2.91896989		0.46703478		1.49073342		 0.00039222		-0.00024146		-0.00013101	
O		5.56490940		0.89038554		3.61276986		-0.00039222		 0.00024146		 0.00013101	
O		9.27172992		10.27597532		1.49073342		 0.00037789		-0.00020199		-0.00011620	
O		2.09966995		9.12844612		3.61276986		-0.00037789		 0.00020199		 0.00011620	
O		0.69187304		3.12125074		3.69493680		-0.00014817		 0.00017486		-0.00021925	
O		10.67952583		16.28316970		1.40856648		 0.00014817		-0.00017486		 0.00021925	
O		8.78069303		4.41546322		1.40856648		-0.00016364		 0.00006988		 0.00070103	
O		2.59070683		14.98895722		3.69493680		 0.00016364		-0.00006988		-0.00070103	
O		7.04463307		12.93019128		3.69493680		-0.00019319		 0.00016205		-0.00019854	
O		4.32676580		6.47423016		1.40856648		 0.00019319		-0.00016205		 0.00019854	
O		5.31545258		12.65352379		1.40856648		-0.00017855		 0.00005632		 0.00069243	
O		6.05594629		6.75089864		3.69493680		 0.00017855		-0.00005632		-0.00069243	
O		0.12188972		0.01950196		3.65002582		-0.00005770		 0.00014832		 0.00001530	
O		8.36198958		1.33791837		1.45347845		 0.00005770		-0.00014832		-0.00001530	
O		6.47464975		9.82844249		3.65002582		 0.00003686		 0.00013511		-0.00000460	
O		4.89675012		9.57597895		1.45347845		-0.00003686		-0.00013511		 0.00000460	
O		3.65738554		2.94684673		0.50626838		 0.00016107		-0.00029784		-0.00020389	
O		7.71401334		16.45757470		4.59723589		-0.00016107		 0.00029784		 0.00020389	
O		5.60208084		3.25799810		4.59723589		 0.00021212		 0.00031223		 0.00033565	
O		5.76931902		16.14642333		0.50626838		-0.00021212		-0.00031223		-0.00033565	
O		10.01014656		12.75578627		0.50626838		 0.00013208		-0.00035190		-0.00019174	
O		1.36125430		6.64863417		4.59723589		-0.00013208		 0.00035190		 0.00019174	
O		2.13684139		11.49605868		4.59723589		 0.00024387		 0.00026003		 0.00033020	
O		9.23455848		7.90836276		0.50626838		-0.00024387		-0.00026003		-0.00033020	
Ca		0.13451518		4.90311754		2.55175164		-0.00023550		 0.00023657		-0.00004739	
Ca		1.41888421		12.93042394		2.55175164		 0.00023550		-0.00023657		 0.00004739	
Ca		6.48727521		14.71205807		2.55175164		-0.00023751		 0.00023568		-0.00005167	
Ca		4.88412366		4.69236436		2.55175164		 0.00023751		-0.00023568		 0.00005167	
Mg		0.00000000		0.00000000		0.00000000		0.00000000		0.00000000		0.00000000	
Mg		6.35276003		9.80893954		0.00000000		0.00000000		0.00000000		0.00000000	
Mg		0.50993631		3.18710042		0.00000000		 0.00033494		 0.00057866		-0.00038902	
Mg		2.37758427		14.85990068		0.00000000		-0.00033494		-0.00057866		 0.00038902	
Mg		6.86269634		12.99603996		0.00000000		 0.00032973		 0.00055299		-0.00036718	
Mg		5.84282372		6.62184011		0.00000000		-0.00032973		-0.00055299		 0.00036718	
Mg		-0.41353615		1.47779674		2.55175164		 0.00028318		-0.00052857		 0.00055183	
Mg		1.96693553		16.35574374		2.55175164		-0.00028318		 0.00052857		-0.00055183	
Mg		5.93922388		11.28673827		2.55175164		 0.00030607		-0.00050222		 0.00052452	
Mg		5.43217598		8.11768416		2.55175164		-0.00030607		 0.00050222		-0.00052452	
H		0.92650901		0.14824232		3.92969804		 0.00005888		-0.00020670		 0.00073336	
H		7.55737029		1.20917901		1.17380623		-0.00005888		 0.00020670		-0.00073336	
H		7.27926904		9.95718185		3.92969804		 0.00001295		-0.00019707		 0.00072069	
H		4.09212984		9.44723958		1.17380623		-0.00001295		 0.00019707		-0.00072069	
