# total energy = -4022.46838927 eV

CRYSTAL
PRIMVEC
		3.98431017		0.00000000		0.00000000
		0.00000000		3.98427861		0.00000000
		0.00000000		0.00000000		3.98429834
PRIMECORD
   5 1
Ca		0.00000000		0.00000000		0.00000000		-0.00000006		 0.00000003		-0.00000007
Mg		1.99215430		1.99213891		1.99214917		 0.00000002		 0.00000009		-0.00000010
O		1.99215469		1.99213931		0.00000000		-0.00000007		-0.00000006		-0.00000012
O		1.99215469		0.00000000		1.99214877		 0.00000025		-0.00000009		 0.00000038
O		0.00000000		1.99213931		1.99214917		-0.00000014		 0.00000001		-0.00000009
