# total energy = -11145.7127183 eV

CRYSTAL
PRIMVEC
		7.44099980		0.00000000		0.00000000
		0.00000000		4.40999782		0.35280012
		0.00000000		0.66335769		8.29199718
PRIMECORD
   12 1
Ca		0.14547229		1.55402900		5.73231557		-0.00047525		 0.00003888		-0.00036065
Ca		7.29552751		3.51933098		2.91248396		 0.00047525		-0.00003888		 0.00036065
Ca		3.57502761		3.42734906		1.76271630		 0.00047525		 0.00003888		-0.00036065
Ca		3.86597219		1.64601092		6.88208398		-0.00047525		-0.00003888		 0.00036065
Si		2.01346014		1.35829201		3.28559504		-0.00032570		 0.00039760		 0.00034419
Si		5.42753966		3.71506797		5.35920450		 0.00032570		-0.00039760		-0.00034419
Si		1.70703976		3.89497125		7.60799444		 0.00032570		 0.00039760		 0.00034419
Si		5.73396003		1.17838798		1.03680510		-0.00032570		-0.00039760		-0.00034419
Mg		1.07254571		1.14483577		0.61739464		 0.00038402		-0.00012848		 0.00054226
Mg		6.36845409		3.92852421		8.02740341		-0.00038402		 0.00012848		-0.00054226
Mg		2.64795419		3.68151576		4.93979478		-0.00038402		-0.00012848		 0.00054226
Mg		4.79304561		1.39184422		3.70500402		 0.00038402		 0.00012848		-0.00054226
