# total energy = -11146.4788004 eV

CRYSTAL
PRIMVEC
		7.44099980		0.00000000		0.00000000
		0.00000000		4.40999782		-0.17639634
		0.00000000		-0.33168257		8.29199718
PRIMECORD
   12 1
Ca		0.14547229		0.87673506		5.60001608		-0.00007200		 0.00046035		 0.00024452
Ca		7.29552751		3.20158466		2.51558401		 0.00007200		-0.00046035		-0.00024452
Ca		3.57502761		3.24757525		1.36581560		 0.00007200		 0.00046035		 0.00024452
Ca		3.86597219		0.83074521		6.74978375		-0.00007200		-0.00046035		-0.00024452
Si		2.01346014		0.97460430		3.15329481		 0.00039031		 0.00012348		 0.00008471
Si		5.42753966		3.10371617		4.96230454		-0.00039031		-0.00012348		-0.00008471
Si		1.70703976		3.01376416		7.21109448		-0.00039031		 0.00012348		 0.00008471
Si		5.73396003		1.06455631		0.90450487		 0.00039031		-0.00012348		-0.00008471
Mg		1.07254571		1.08133204		0.48509515		-0.00014687		-0.00007656		 0.00018954
Mg		6.36845409		2.99698768		7.63050346		 0.00014687		 0.00007656		-0.00018954
Mg		2.64795419		3.12049190		4.54289482		 0.00014687		-0.00007656		 0.00018954
Mg		4.79304561		0.95782782		3.57270378		-0.00014687		 0.00007656		-0.00018954
