# total energy = -11146.4788005 eV

CRYSTAL
PRIMVEC
		7.44099980		0.00000000		0.00000000
		0.00000000		4.40999782		0.17639634
		0.00000000		0.33168257		8.29199718
PRIMECORD
   12 1
Ca		0.14547229		1.32826460		5.68821574		-0.00007227		-0.00046036		 0.00024411
Ca		7.29552751		3.41341505		2.78018373		 0.00007227		 0.00046036		-0.00024411
Ca		3.57502761		3.36742520		1.63041607		 0.00007227		-0.00046036		 0.00024411
Ca		3.86597219		1.37425519		6.83798415		-0.00007227		 0.00046036		-0.00024411
Si		2.01346014		1.23039610		3.24149521		 0.00038996		-0.00012384		 0.00008499
Si		5.42753966		3.51128354		5.22690501		-0.00038996		 0.00012384		-0.00008499
Si		1.70703976		3.60123555		7.47569495		-0.00038996		-0.00012384		 0.00008499
Si		5.73396003		1.14044409		0.99270527		 0.00038996		 0.00012384		-0.00008499
Mg		1.07254571		1.12366761		0.57329481		-0.00014659		 0.00007656		 0.00018910
Mg		6.36845409		3.61801203		7.89510392		 0.00014659		-0.00007656		-0.00018910
Mg		2.64795419		3.49450781		4.80749454		 0.00014659		 0.00007656		 0.00018910
Mg		4.79304561		1.24717184		3.66090419		-0.00014659		-0.00007656		-0.00018910
