# total energy = -43997.8878053 eV

CRYSTAL
PRIMVEC
		9.81800346		0.00000000		-1.57088493
		0.00000000		18.04699613		0.00000000
		-2.15068386		0.00000000		5.31696291
PRIMECORD
   82 1
Si		2.11550497		1.51594756		1.13547346		 0.00039443		 0.00025537		 0.00024061
Si		5.55181264		16.53105256		2.61060949		-0.00039443		-0.00025537		-0.00024061
Si		5.55181264		1.51594756		2.61060949		-0.00039443		 0.00025537		-0.00024061
Si		2.11550497		16.53105256		1.13547346		 0.00039443		-0.00025537		 0.00024061
Si		7.02450571		10.53944761		0.35003299		-0.00008027		 0.00035049		 0.00009286
Si		0.64281390		7.50755250		3.39604996		 0.00008027		-0.00035049		-0.00009286
Si		0.64281390		10.53944761		3.39604996		 0.00008027		 0.00035049		-0.00009286
Si		7.02450571		7.50755250		0.35003299		-0.00008027		-0.00035049		 0.00009286
Si		1.10487923		3.08784169		3.82238756		 0.00007463		 0.00018269		 0.00031071
Si		6.56243938		14.95915842		-0.07630561		-0.00007463		-0.00018269		-0.00031071
Si		6.56243938		3.08784169		-0.07630561		-0.00007463		 0.00018269		-0.00031071
Si		1.10487923		14.95915842		3.82238756		 0.00007463		-0.00018269		 0.00031071
Si		6.01387897		12.11134274		3.03694808		-0.00029946		 0.00002560		 0.00025803
Si		1.65343963		5.93565837		0.70913387		 0.00029946		-0.00002560		-0.00025803
Si		1.65343963		12.11134274		0.70913387		 0.00029946		 0.00002560		-0.00025803
Si		6.01387897		5.93565837		3.03694808		-0.00029946		-0.00002560		 0.00025803
O		2.10800406		2.13857045		2.58874709		 0.00058095		 0.00068104		-0.00005135
O		5.55931454		15.90843065		1.15733586		-0.00058095		-0.00068104		 0.00005135
O		5.55931454		2.13857045		1.15733586		-0.00058095		 0.00068104		 0.00005135
O		2.10800406		15.90843065		2.58874709		 0.00058095		-0.00068104		-0.00005135
O		7.01700381		11.16206952		1.80330662		 0.00063310		 0.00067322		-0.00004533
O		0.65031480		6.88493060		1.94277633		-0.00063310		-0.00067322		 0.00004533
O		0.65031480		11.16206952		1.94277633		-0.00063310		 0.00067322		 0.00004533
O		7.01700381		6.88493060		1.80330662		 0.00063310		-0.00067322		-0.00004533
O		0.62975791		1.55204218		0.97884532		-0.00006078		-0.00010939		-0.00005953
O		7.03756070		16.49495793		2.76723663		 0.00006078		 0.00010939		 0.00005953
O		7.03756070		1.55204218		2.76723663		 0.00006078		-0.00010939		 0.00005953
O		0.62975791		16.49495793		0.97884532		-0.00006078		 0.00010939		-0.00005953
O		5.53875765		10.57554323		0.19340485		 0.00034321		-0.00014854		 0.00010013
O		2.12856096		7.47145787		3.55267711		-0.00034321		 0.00014854		-0.00010013
O		2.12856096		10.57554323		3.55267711		-0.00034321		-0.00014854		-0.00010013
O		5.53875765		7.47145787		0.19340485		 0.00034321		 0.00014854		 0.00010013
O		1.88136217		4.47565639		3.64394674		-0.00038130		 0.00001376		 0.00033884
O		5.78595644		13.57134372		0.10213621		 0.00038130		-0.00001376		-0.00033884
O		5.78595644		4.47565639		0.10213621		 0.00038130		 0.00001376		-0.00033884
O		1.88136217		13.57134372		3.64394674		-0.00038130		-0.00001376		 0.00033884
O		6.79036191		13.49915645		2.85850726		-0.00031163		 0.00015894		 0.00032197
O		0.87695670		4.54784366		0.88757569		 0.00031163		-0.00015894		-0.00032197
O		0.87695670		13.49915645		0.88757569		 0.00031163		 0.00015894		-0.00032197
O		6.79036191		4.54784366		2.85850726		-0.00031163		-0.00015894		 0.00032197
O		2.68045223		0.00000000		1.02369764		-0.00090537		0.00000000		 0.00025711
O		4.98686738		0.00000000		2.72238531		 0.00090537		0.00000000		-0.00025711
O		7.58945197		9.02350006		0.23825816		-0.00078306		-0.00000000		 0.00026764
O		0.07786664		9.02350006		3.50782479		 0.00078306		-0.00000000		-0.00026764
O		-0.39366034		3.08964731		3.66333237		-0.00037325		 0.00057109		 0.00002854
O		8.06097895		14.95735379		0.08275058		 0.00037325		-0.00057109		-0.00002854
O		8.06097895		3.08964731		0.08275058		 0.00037325		 0.00057109		-0.00002854
O		-0.39366034		14.95735379		3.66333237		-0.00037325		-0.00057109		 0.00002854
O		4.51534040		12.11314737		2.87789189		-0.00008773		 0.00059768		 0.00010188
O		3.15197920		5.93385374		0.86819106		 0.00008773		-0.00059768		-0.00010188
O		3.15197920		12.11314737		0.86819106		 0.00008773		 0.00059768		-0.00010188
O		4.51534040		5.93385374		2.87789189		-0.00008773		-0.00059768		 0.00010188
O		-0.46211406		0.00000000		3.63052287		 0.00000306		0.00000000		-0.00030010
O		8.12943266		0.00000000		0.11555909		-0.00000306		0.00000000		 0.00030010
O		4.44688569		9.02350006		2.84508339		-0.00024790		-0.00000000		-0.00035865
O		3.22043292		9.02350006		0.90099857		 0.00024790		-0.00000000		 0.00035865
O		3.18858887		2.42371225		-0.01686709		 0.00005494		 0.00011129		-0.00004557
O		4.47872874		15.62328885		3.76295004		-0.00005494		-0.00011129		 0.00004557
O		4.47872874		2.42371225		3.76295004		-0.00005494		 0.00011129		 0.00004557
O		3.18858887		15.62328885		-0.01686709		 0.00005494		-0.00011129		-0.00004557
O		8.09758961		11.44721231		-0.80230658		 0.00010152		 0.00012868		-0.00003598
O		-0.43027001		6.59978780		4.54838953		-0.00010152		-0.00012868		 0.00003598
O		-0.43027001		11.44721231		4.54838953		-0.00010152		 0.00012868		 0.00003598
O		8.09758961		6.59978780		-0.80230658		 0.00010152		-0.00012868		-0.00003598
Ca		-1.07533994		5.00984735		2.65848046		0.00000000		-0.00013853		0.00000000
Ca		-1.07533994		13.03715375		2.65848046		0.00000000		 0.00013853		0.00000000
Ca		3.83365980		14.03334741		1.87304098		0.00000000		-0.00019522		0.00000000
Ca		3.83365980		4.01365270		1.87304098		0.00000000		 0.00019522		0.00000000
Mg		0.00000000		0.00000000		0.00000000		0.00000000		0.00000000		0.00000000
Mg		4.90899974		9.02350006		-0.78544048		0.00000000		0.00000000		0.00000000
Mg		0.00000000		3.18710042		0.00000000		0.00000000		-0.00036878		0.00000000
Mg		0.00000000		14.85990068		0.00000000		0.00000000		 0.00036878		0.00000000
Mg		4.90899974		12.21059949		-0.78544048		0.00000000		-0.00039343		0.00000000
Mg		4.90899974		5.83639963		-0.78544048		0.00000000		 0.00039343		0.00000000
Mg		-1.07533994		1.58452655		2.65848046		0.00000000		 0.00006171		0.00000000
Mg		-1.07533994		16.46247356		2.65848046		0.00000000		-0.00006171		0.00000000
Mg		3.83365980		10.60802760		1.87304098		0.00000000		 0.00014219		0.00000000
Mg		3.83365980		7.43897350		1.87304098		0.00000000		-0.00014219		0.00000000
H		0.29775831		0.00000000		3.78145573		-0.00014831		0.00000000		 0.00001191
H		7.36956129		0.00000000		-0.03537278		 0.00014831		0.00000000		-0.00001191
H		5.20675806		9.02350006		2.99601624		 0.00012590		0.00000000		 0.00009539
H		2.46056055		9.02350006		0.75006671		-0.00012590		0.00000000		-0.00009539
