# total energy = -44011.9024873 eV

CRYSTAL
PRIMVEC
		9.81800030		0.00000000		-0.39271962
		0.00000000		18.04700325		0.00000000
		-1.53825665		0.00000000		5.15687198
PRIMECORD
   82 1
Si		2.29702656		1.51594804		1.41837734		 0.00003372		-0.00010860		 0.00028134
Si		5.98271217		16.53105325		3.34577110		-0.00003372		 0.00010860		-0.00028134
Si		5.98271217		1.51594804		3.34577110		-0.00003372		-0.00010860		-0.00028134
Si		2.29702656		16.53105325		1.41837734		 0.00003372		 0.00010860		 0.00028134
Si		7.20602671		10.53944770		1.22201654		-0.00025759		-0.00020866		 0.00019895
Si		1.07371301		7.50755260		3.54213091		 0.00025759		 0.00020866		-0.00019895
Si		1.07371301		10.53944770		3.54213091		 0.00025759		-0.00020866		-0.00019895
Si		7.20602671		7.50755260		1.22201654		-0.00025759		 0.00020866		 0.00019895
Si		1.59738764		3.08784152		4.03377523		 0.00034951		 0.00021172		 0.00017592
Si		6.68235208		14.95915878		0.73037320		-0.00034951		-0.00021172		-0.00017592
Si		6.68235208		3.08784152		0.73037320		-0.00034951		 0.00021172		-0.00017592
Si		1.59738764		14.95915878		4.03377523		 0.00034951		-0.00021172		 0.00017592
Si		6.50638680		12.11134315		3.83741542		-0.00026289		-0.00031084		 0.00012993
Si		1.77335193		5.93565814		0.92673301		 0.00026289		 0.00031084		-0.00012993
Si		1.77335193		12.11134315		0.92673301		 0.00026289		-0.00031084		-0.00012993
Si		6.50638680		5.93565814		3.83741542		-0.00026289		 0.00031084		 0.00012993
O		2.46835207		2.13856997		2.89936303		-0.00044845		 0.00030759		 0.00033913
O		5.81138667		15.90843131		1.86478639		 0.00044845		-0.00030759		-0.00033913
O		5.81138667		2.13856997		1.86478639		 0.00044845		 0.00030759		-0.00033913
O		2.46835207		15.90843131		2.89936303		-0.00044845		-0.00030759		 0.00033913
O		7.37735320		11.16206963		2.70300322		-0.00038750		 0.00036574		 0.00045042
O		0.90238652		6.88493067		2.06114620		 0.00038750		-0.00036574		-0.00045042
O		0.90238652		11.16206963		2.06114620		 0.00038750		 0.00036574		-0.00045042
O		7.37735320		6.88493067		2.70300322		-0.00038750		-0.00036574		 0.00045042
O		0.76271401		1.55204232		1.07568899		 0.00036095		-0.00002259		-0.00047049
O		7.51702472		16.49495798		3.68845945		-0.00036095		 0.00002259		 0.00047049
O		7.51702472		1.55204232		3.68845945		-0.00036095		-0.00002259		 0.00047049
O		0.76271401		16.49495798		1.07568899		 0.00036095		 0.00002259		-0.00047049
O		5.67171416		10.57554296		0.87932918		 0.00057249		-0.00006785		-0.00040487
O		2.60802458		7.47145832		3.88481926		-0.00057249		 0.00006785		 0.00040487
O		2.60802458		10.57554296		3.88481926		-0.00057249		-0.00006785		 0.00040487
O		5.67171416		7.47145832		0.87932918		 0.00057249		 0.00006785		-0.00040487
O		2.36719493		4.47565555		3.94744432		 0.00036369		-0.00016782		 0.00008492
O		5.91254479		13.57134377		0.81670510		-0.00036369		 0.00016782		-0.00008492
O		5.91254479		4.47565555		0.81670510		-0.00036369		-0.00016782		-0.00008492
O		2.36719493		13.57134377		3.94744432		 0.00036369		 0.00016782		 0.00008492
O		7.27619508		13.49915717		3.75108353		 0.00063151		 0.00027312		 0.00008219
O		1.00354366		4.54784411		1.01306491		-0.00063151		-0.00027312		-0.00008219
O		1.00354366		13.49915717		1.01306491		-0.00063151		 0.00027312		-0.00008219
O		7.27619508		4.54784411		3.75108353		 0.00063151		-0.00027312		 0.00008219
O		2.85934037		0.00000000		1.37397530		-0.00053531		0.00000000		-0.00055429
O		5.42039934		0.00000000		3.39017412		 0.00053531		0.00000000		 0.00055429
O		7.76833954		9.02349966		1.17761450		-0.00047123		0.00000000		-0.00054658
O		0.51139920		9.02349966		3.58653393		 0.00047123		0.00000000		 0.00054658
O		0.04973256		3.08964653		3.68703470		 0.00018387		-0.00010977		-0.00034038
O		8.23000715		14.95735377		1.07711275		-0.00018387		 0.00010977		 0.00034038
O		8.23000715		3.08964653		1.07711275		-0.00018387		-0.00010977		 0.00034038
O		0.04973256		14.95735377		3.68703470		 0.00018387		 0.00010977		-0.00034038
O		4.95873173		12.11314816		3.49067489		 0.00047494		-0.00011415		-0.00027085
O		3.32100701		5.93385411		1.27347256		-0.00047494		 0.00011415		 0.00027085
O		3.32100701		12.11314816		1.27347256		-0.00047494		-0.00011415		 0.00027085
O		4.95873173		5.93385411		3.49067489		 0.00047494		 0.00011415		-0.00027085
O		-0.02411067		0.00000000		3.64515004		 0.00041450		0.00000000		 0.00029188
O		8.30385039		0.00000000		1.11899839		-0.00041450		0.00000000		-0.00029188
O		4.88488849		9.02349966		3.44879023		 0.00043639		0.00000000		 0.00028406
O		3.39485122		9.02349966		1.31535820		-0.00043639		0.00000000		-0.00028406
O		3.24934216		2.42371224		0.37548409		-0.00075171		-0.00044149		-0.00014279
O		5.03039756		15.62328904		4.38866532		 0.00075171		 0.00044149		 0.00014279
O		5.03039756		2.42371224		4.38866532		 0.00075171		-0.00044149		 0.00014279
O		3.24934216		15.62328904		0.37548409		-0.00075171		 0.00044149		-0.00014279
O		8.15834231		11.44721288		0.17912428		-0.00065139		-0.00036503		-0.00023857
O		0.12139839		6.59978840		4.58502513		 0.00065139		 0.00036503		 0.00023857
O		0.12139839		11.44721288		4.58502513		 0.00065139		-0.00036503		 0.00023857
O		8.15834231		6.59978840		0.17912428		-0.00065139		 0.00036503		-0.00023857
Ca		-0.76913029		5.00984679		2.57843403		0.00000000		 0.00018924		0.00000000
Ca		-0.76913029		13.03715351		2.57843403		0.00000000		-0.00018924		0.00000000
Ca		4.13986986		14.03334743		2.38207422		0.00000000		 0.00009935		0.00000000
Ca		4.13986986		4.01365287		2.38207422		0.00000000		-0.00009935		0.00000000
Mg		0.00000000		0.00000000		0.00000000		0.00000000		0.00000000		0.00000000
Mg		4.90900015		9.02349966		-0.19635981		0.00000000		0.00000000		0.00000000
Mg		0.00000000		3.18710031		0.00000000		0.00000000		 0.00062565		0.00000000
Mg		0.00000000		14.85990098		0.00000000		0.00000000		-0.00062565		0.00000000
Mg		4.90900015		12.21059996		-0.19635981		0.00000000		 0.00061910		0.00000000
Mg		4.90900015		5.83640034		-0.19635981		0.00000000		-0.00061910		0.00000000
Mg		-0.76913029		1.58452658		2.57843403		0.00000000		 0.00009237		0.00000000
Mg		-0.76913029		16.46247372		2.57843403		0.00000000		-0.00009237		0.00000000
Mg		4.13986986		10.60802821		2.38207422		0.00000000		-0.00004067		0.00000000
Mg		4.13986986		7.43897406		2.38207422		0.00000000		 0.00004067		0.00000000
H		0.76932189		0.00000000		3.89263670		 0.00079504		0.00000000		 0.00018959
H		7.51041782		0.00000000		0.87151075		-0.00079504		0.00000000		-0.00018959
H		5.67832106		9.02349966		3.69627690		 0.00080265		0.00000000		 0.00020149
H		2.60141767		9.02349966		1.06787056		-0.00080265		0.00000000		-0.00020149
