# total energy = -44004.7612277 eV

CRYSTAL
PRIMVEC
		9.81800160		0.00000000		1.17815782
		0.00000000		18.04700061		0.00000000
		-0.72169768		0.00000000		4.94340762
PRIMECORD
   82 1
Si		2.53905494		1.51594781		1.79558292		-0.00044911		 0.00007126		 0.00028695
Si		6.55724404		16.53105279		4.32598746		 0.00044911		-0.00007126		-0.00028695
Si		6.55724404		1.51594781		4.32598746		 0.00044911		 0.00007126		-0.00028695
Si		2.53905494		16.53105279		1.79558292		-0.00044911		-0.00007126		 0.00028695
Si		7.44805574		10.53944812		2.38466282		-0.00031181		 0.00001734		 0.00038991
Si		1.64824521		7.50755348		3.73690657		 0.00031181		-0.00001734		-0.00038991
Si		1.64824521		10.53944812		3.73690657		 0.00031181		 0.00001734		-0.00038991
Si		7.44805574		7.50755348		2.38466282		-0.00031181		-0.00001734		 0.00038991
Si		2.25406623		3.08784243		4.31562438		-0.00053447		 0.00008506		-0.00016294
Si		6.84223472		14.95915917		1.80594502		 0.00053447		-0.00008506		 0.00016294
Si		6.84223472		3.08784243		1.80594502		 0.00053447		 0.00008506		 0.00016294
Si		2.25406623		14.95915917		4.31562438		-0.00053447		-0.00008506		-0.00016294
Si		7.16306506		12.11134273		4.90470428		-0.00020717		 0.00018415		-0.00004750
Si		1.93323392		5.93565788		1.21686512		 0.00020717		-0.00018415		 0.00004750
Si		1.93323392		12.11134273		1.21686512		 0.00020717		 0.00018415		 0.00004750
Si		7.16306506		5.93565788		4.90470428		-0.00020717		-0.00018415		-0.00004750
O		2.94881694		2.13857028		3.31351831		-0.00018820		 0.00003192		 0.00006423
O		6.14748303		15.90843132		2.80805108		 0.00018820		-0.00003192		-0.00006423
O		6.14748303		2.13857028		2.80805108		 0.00018820		 0.00003192		-0.00006423
O		2.94881694		15.90843132		3.31351831		-0.00018820		-0.00003192		 0.00006423
O		7.85781675		11.16206959		3.90259821		-0.00025262		 0.00006535		 0.00009752
O		1.23848421		6.88493101		2.21897118		 0.00025262		-0.00006535		-0.00009752
O		1.23848421		11.16206959		2.21897118		 0.00025262		 0.00006535		-0.00009752
O		7.85781675		6.88493101		3.90259821		-0.00025262		-0.00006535		 0.00009752
O		0.93998987		1.55204160		1.20481507		-0.00031704		 0.00032470		 0.00000217
O		8.15631108		16.49495802		4.91675432		 0.00031704		-0.00032470		-0.00000217
O		8.15631108		1.55204160		4.91675432		 0.00031704		 0.00032470		-0.00000217
O		0.93998987		16.49495802		1.20481507		-0.00031704		-0.00032470		 0.00000217
O		5.84898869		10.57554289		1.79389497		-0.00047583		 0.00037896		-0.00003540
O		3.24731127		7.47145772		4.32767443		 0.00047583		-0.00037896		 0.00003540
O		3.24731127		10.57554289		4.32767443		 0.00047583		 0.00037896		 0.00003540
O		5.84898869		7.47145772		1.79389497		-0.00047583		-0.00037896		-0.00003540
O		3.01497256		4.47565587		4.35210579		 0.00004336		-0.00001278		 0.00020230
O		6.08132840		13.57134375		1.76946262		-0.00004336		 0.00001278		-0.00020230
O		6.08132840		4.47565587		1.76946262		-0.00004336		-0.00001278		-0.00020230
O		3.01497256		13.57134375		4.35210579		 0.00004336		 0.00001278		 0.00020230
O		7.92397237		13.49915717		4.94118569		-0.00002616		-0.00003406		 0.00017199
O		1.17232760		4.54784443		1.18038272		 0.00002616		 0.00003406		-0.00017199
O		1.17232760		13.49915717		1.18038272		 0.00002616		-0.00003406		-0.00017199
O		7.92397237		4.54784443		4.94118569		-0.00002616		 0.00003406		 0.00017199
O		3.09785842		0.00000000		1.84101040		 0.00020484		0.00000000		 0.00040251
O		5.99844253		0.00000000		4.28055899		-0.00020484		0.00000000		-0.00040251
O		8.00685725		9.02350030		2.43009030		 0.00012057		-0.00000000		 0.00034297
O		1.08944272		9.02350030		3.69147909		-0.00012057		-0.00000000		-0.00034297
O		0.64092201		3.08964707		3.71863966		-0.00032981		 0.00034877		-0.00015122
O		8.45537796		14.95735354		2.40292874		 0.00032981		-0.00034877		 0.00015122
O		8.45537796		3.08964707		2.40292874		 0.00032981		 0.00034877		 0.00015122
O		0.64092201		14.95735354		3.71863966		-0.00032981		-0.00034877		-0.00015122
O		5.54992182		12.11314836		4.30771956		-0.00051181		 0.00041118		-0.00019589
O		3.54637815		5.93385423		1.81384884		 0.00051181		-0.00041118		 0.00019589
O		3.54637815		12.11314836		1.81384884		 0.00051181		 0.00041118		 0.00019589
O		5.54992182		5.93385423		4.30771956		-0.00051181		-0.00041118		-0.00019589
O		0.55989319		0.00000000		3.66465275		-0.00015070		0.00000000		-0.00037605
O		8.53640678		0.00000000		2.45691664		 0.00015070		0.00000000		 0.00037605
O		5.46889300		9.02350030		4.25373265		-0.00005028		-0.00000000		-0.00033011
O		3.62740697		9.02350030		1.86783674		 0.00005028		-0.00000000		 0.00033011
O		3.33034448		2.42371226		0.89861863		 0.00003578		-0.00014946		-0.00017726
O		5.76595549		15.62328934		5.22294977		-0.00003578		 0.00014946		 0.00017726
O		5.76595549		2.42371226		5.22294977		-0.00003578		-0.00014946		 0.00017726
O		3.33034448		15.62328934		0.89861863		 0.00003578		 0.00014946		-0.00017726
O		8.23934528		11.44721256		1.48769853		-0.00000803		-0.00000643		-0.00024010
O		0.85695568		6.59978805		4.63387086		 0.00000803		 0.00000643		 0.00024010
O		0.85695568		11.44721256		4.63387086		 0.00000803		-0.00000643		 0.00024010
O		8.23934528		6.59978805		1.48769853		-0.00000803		 0.00000643		-0.00024010
Ca		-0.36084983		5.00984704		2.47170480		0.00000000		 0.00007235		0.00000000
Ca		-0.36084983		13.03715357		2.47170480		0.00000000		-0.00007235		0.00000000
Ca		4.54814998		14.03334833		3.06078470		0.00000000		 0.00014537		0.00000000
Ca		4.54814998		4.01365327		3.06078470		0.00000000		-0.00014537		0.00000000
Mg		0.00000000		0.00000000		0.00000000		0.00000000		0.00000000		0.00000000
Mg		4.90899981		9.02350030		0.58907990		0.00000000		0.00000000		0.00000000
Mg		0.00000000		3.18709959		0.00000000		0.00000000		 0.00012081		0.00000000
Mg		0.00000000		14.85990102		0.00000000		0.00000000		-0.00012081		0.00000000
Mg		4.90899981		12.21059989		0.58907990		0.00000000		-0.00005573		0.00000000
Mg		4.90899981		5.83639973		0.58907990		0.00000000		 0.00005573		0.00000000
Mg		-0.36084983		1.58452709		2.47170480		0.00000000		 0.00071157		0.00000000
Mg		-0.36084983		16.46247352		2.47170480		0.00000000		-0.00071157		0.00000000
Mg		4.54814998		10.60802838		3.06078470		0.00000000		 0.00076986		0.00000000
Mg		4.54814998		7.43897420		3.06078470		0.00000000		-0.00076986		0.00000000
H		1.39807270		0.00000000		4.04087910		-0.00023425		-0.00000000		 0.00029047
H		7.69822726		0.00000000		2.08069029		 0.00023425		-0.00000000		-0.00029047
H		6.30707251		9.02350030		4.62995900		-0.00035996		-0.00000000		 0.00029821
H		2.78922745		9.02350030		1.49161039		 0.00035996		-0.00000000		-0.00029821
