# total energy = -44008.3808587 eV

CRYSTAL
PRIMVEC
		9.81799702		0.00000000		-0.78543779
		0.00000000		18.04700547		0.00000000
		-1.74240231		0.00000000		5.21023648
PRIMECORD
   82 1
Si		2.23651946		1.51594763		1.32407605		 0.00016230		-0.00003148		-0.00001642
Si		5.83907919		16.53105292		3.10071673		-0.00016230		 0.00003148		 0.00001642
Si		5.83907919		1.51594763		3.10071673		-0.00016230		-0.00003148		 0.00001642
Si		2.23651946		16.53105292		1.32407605		 0.00016230		 0.00003148		-0.00001642
Si		7.14551994		10.53944741		0.93135617		 0.00024258		-0.00006051		-0.00000490
Si		0.93007969		7.50755313		3.49343661		-0.00024258		 0.00006051		 0.00000490
Si		0.93007969		10.53944741		3.49343661		-0.00024258		-0.00006051		 0.00000490
Si		7.14551994		7.50755313		0.93135617		 0.00024258		 0.00006051		-0.00000490
Si		1.43321787		3.08784164		3.96331250		-0.00005865		-0.00012584		 0.00005092
Si		6.64238078		14.95915891		0.46148028		 0.00005865		 0.00012584		-0.00005092
Si		6.64238078		3.08784164		0.46148028		 0.00005865		-0.00012584		-0.00005092
Si		1.43321787		14.95915891		3.96331250		-0.00005865		 0.00012584		 0.00005092
Si		6.34221737		12.11134241		3.57059262		-0.00001833		-0.00014202		 0.00003997
Si		1.73338128		5.93565814		0.85420016		 0.00001833		 0.00014202		-0.00003997
Si		1.73338128		12.11134241		0.85420016		 0.00001833		-0.00014202		-0.00003997
Si		6.34221737		5.93565814		3.57059262		-0.00001833		 0.00014202		 0.00003997
O		2.34823591		2.13856947		2.79582366		 0.00004019		 0.00003525		 0.00003140
O		5.72736274		15.90843108		1.62896912		-0.00004019		-0.00003525		-0.00003140
O		5.72736274		2.13856947		1.62896912		-0.00004019		 0.00003525		-0.00003140
O		2.34823591		15.90843108		2.79582366		 0.00004019		-0.00003525		 0.00003140
O		7.25723639		11.16206926		2.40310378		 0.00003261		 0.00000728		 0.00004337
O		0.81836324		6.88493129		2.02168900		-0.00003261		-0.00000728		-0.00004337
O		0.81836324		11.16206926		2.02168900		-0.00003261		 0.00000728		-0.00004337
O		7.25723639		6.88493129		2.40310378		 0.00003261		-0.00000728		 0.00004337
O		0.71839512		1.55204162		1.04340749		 0.00013531		-0.00000683		 0.00004738
O		7.35720353		16.49495794		3.38138529		-0.00013531		 0.00000683		-0.00004738
O		7.35720353		1.55204162		3.38138529		-0.00013531		-0.00000683		-0.00004738
O		0.71839512		16.49495794		1.04340749		 0.00013531		 0.00000683		 0.00004738
O		5.62739461		10.57554239		0.65068761		 0.00007668		-0.00002071		 0.00003538
O		2.44820403		7.47145816		3.77410517		-0.00007668		 0.00002071		-0.00003538
O		2.44820403		10.57554239		3.77410517		-0.00007668		-0.00002071		-0.00003538
O		5.62739461		7.47145816		0.65068761		 0.00007668		 0.00002071		 0.00003538
O		2.20525068		4.47565590		3.84627838		-0.00026325		-0.00010203		-0.00057242
O		5.87034896		13.57134366		0.57851539		 0.00026325		 0.00010203		 0.00057242
O		5.87034896		4.47565590		0.57851539		 0.00026325		-0.00010203		 0.00057242
O		2.20525068		13.57134366		3.84627838		-0.00026325		 0.00010203		-0.00057242
O		7.11425017		13.49915667		3.45355751		-0.00027501		-0.00008674		-0.00058804
O		0.96134946		4.54784388		0.97123527		 0.00027501		 0.00008674		 0.00058804
O		0.96134946		13.49915667		0.97123527		 0.00027501		-0.00008674		 0.00058804
O		7.11425017		4.54784388		3.45355751		-0.00027501		 0.00008674		-0.00058804
O		2.79971121		0.00000000		1.25721559		 0.00008242		0.00000000		-0.00047359
O		5.27588843		0.00000000		3.16757719		-0.00008242		0.00000000		 0.00047359
O		7.70871070		9.02349978		0.86449571		 0.00009140		0.00000000		-0.00046004
O		0.36688893		9.02349978		3.56029707		-0.00009140		0.00000000		 0.00046004
O		-0.09806523		3.08964703		3.67913363		-0.00021963		-0.00017655		 0.00011656
O		8.17366387		14.95735352		0.74565915		 0.00021963		 0.00017655		-0.00011656
O		8.17366387		3.08964703		0.74565915		 0.00021963		-0.00017655		-0.00011656
O		-0.09806523		14.95735352		3.67913363		-0.00021963		 0.00017655		 0.00011656
O		4.81093526		12.11314780		3.28641375		-0.00026013		-0.00018876		 0.00012671
O		3.26466438		5.93385374		1.13837903		 0.00026013		 0.00018876		-0.00012671
O		3.26466438		12.11314780		1.13837903		 0.00026013		-0.00018876		-0.00012671
O		4.81093526		5.93385374		3.28641375		-0.00026013		 0.00018876		 0.00012671
O		-0.17011236		0.00000000		3.64027492		-0.00048222		0.00000000		-0.00006389
O		8.24571101		0.00000000		0.78451885		 0.00048222		0.00000000		 0.00006389
O		4.73888812		9.02349978		3.24755504		-0.00045302		0.00000000		-0.00005383
O		3.33671053		9.02349978		1.17723873		 0.00045302		0.00000000		 0.00005383
O		3.22909043		2.42371161		0.24469965		-0.00005087		 0.00007149		 0.00019820
O		4.84650822		15.62328894		4.18009313		 0.00005087		-0.00007149		-0.00019820
O		4.84650822		2.42371161		4.18009313		 0.00005087		 0.00007149		-0.00019820
O		3.22909043		15.62328894		0.24469965		-0.00005087		-0.00007149		 0.00019820
O		8.13809091		11.44721238		-0.14802023		-0.00007802		 0.00006964		 0.00017320
O		-0.06249128		6.59978817		4.57281301		 0.00007802		-0.00006964		-0.00017320
O		-0.06249128		11.44721238		4.57281301		 0.00007802		 0.00006964		-0.00017320
O		8.13809091		6.59978817		-0.14802023		-0.00007802		-0.00006964		 0.00017320
Ca		-0.87120017		5.00984717		2.60511726		0.00000000		-0.00003719		0.00000000
Ca		-0.87120017		13.03715338		2.60511726		0.00000000		 0.00003719		0.00000000
Ca		4.03780031		14.03334793		2.21239738		0.00000000		-0.00005194		0.00000000
Ca		4.03780031		4.01365261		2.21239738		0.00000000		 0.00005194		0.00000000
Mg		0.00000000		0.00000000		0.00000000		0.00000000		0.00000000		0.00000000
Mg		4.90899950		9.02349978		-0.39271988		0.00000000		0.00000000		0.00000000
Mg		0.00000000		3.18709962		0.00000000		0.00000000		-0.00066037		0.00000000
Mg		0.00000000		14.85990093		0.00000000		0.00000000		 0.00066037		0.00000000
Mg		4.90899950		12.21059941		-0.39271988		0.00000000		-0.00055472		0.00000000
Mg		4.90899950		5.83640016		-0.39271988		0.00000000		 0.00055472		0.00000000
Mg		-0.87120017		1.58452681		2.60511726		0.00000000		 0.00016696		0.00000000
Mg		-0.87120017		16.46247374		2.60511726		0.00000000		-0.00016696		0.00000000
Mg		4.03780031		10.60802757		2.21239738		0.00000000		 0.00015336		0.00000000
Mg		4.03780031		7.43897396		2.21239738		0.00000000		-0.00015336		0.00000000
H		0.61213424		0.00000000		3.85557717		 0.00074058		0.00000000		-0.00056605
H		7.46346540		0.00000000		0.56921562		-0.00074058		0.00000000		 0.00056605
H		5.52113373		9.02349978		3.46285728		 0.00070172		0.00000000		-0.00057590
H		2.55446590		9.02349978		0.96193550		-0.00070172		0.00000000		 0.00057590
