# total energy = -49433.2228046 eV

CRYSTAL
PRIMVEC
		18.23299940		0.00000000		0.00000000
		0.00000000		9.26004810		0.00000000
		0.00000000		0.00000000		5.18019569
PRIMECORD
   80 1
Mg		6.86107767		6.05700240		4.48760609		 0.00011552		 0.00007686		 0.00023981
Mg		11.37192172		3.20305300		0.69259325		-0.00011552		-0.00007686		-0.00023981
Mg		2.25542203		3.20305300		1.89750642		-0.00011552		-0.00007686		 0.00023981
Mg		15.97757737		6.05700240		3.28269291		 0.00011552		 0.00007686		-0.00023981
Mg		11.37192172		1.42697470		3.28269291		-0.00011552		 0.00007686		-0.00023981
Mg		6.86107767		7.83308069		1.89750642		 0.00011552		-0.00007686		 0.00023981
Mg		15.97757737		7.83308069		0.69259325		 0.00011552		-0.00007686		-0.00023981
Mg		2.25542203		1.42697470		4.48760609		-0.00011552		 0.00007686		 0.00023981
Mg		6.87201747		4.51149862		1.85917337		-0.00008137		 0.00061933		-0.00003825
Mg		11.36098192		4.74855496		3.32102597		 0.00008137		-0.00061933		 0.00003825
Mg		2.24448223		4.74855496		4.44927304		 0.00008137		-0.00061933		-0.00003825
Mg		15.98851717		4.51149862		0.73092630		-0.00008137		 0.00061933		 0.00003825
Mg		11.36098192		9.14152631		0.73092630		 0.00008137		 0.00061933		 0.00003825
Mg		6.87201747		0.11852908		4.44927304		-0.00008137		-0.00061933		-0.00003825
Mg		15.98851717		0.11852908		3.32102597		-0.00008137		-0.00061933		 0.00003825
Mg		2.24448223		9.14152631		1.85917337		 0.00008137		 0.00061933		-0.00003825
Si		4.95025934		3.16508642		0.26211760		 0.00005164		 0.00042672		 0.00048942
Si		13.28274006		6.09496897		4.91808174		-0.00005164		-0.00042672		-0.00048942
Si		4.16624036		6.09496897		2.85221727		-0.00005164		-0.00042672		 0.00048942
Si		14.06675903		3.16508642		2.32798207		 0.00005164		 0.00042672		-0.00048942
Si		13.28274006		7.79511412		2.32798207		-0.00005164		 0.00042672		-0.00048942
Si		4.95025934		1.46494128		2.85221727		 0.00005164		-0.00042672		 0.00048942
Si		14.06675903		1.46494128		4.91808174		 0.00005164		-0.00042672		-0.00048942
Si		4.16624036		7.79511412		0.26211760		-0.00005164		 0.00042672		 0.00048942
Si		8.63514851		3.12434296		4.13431803		 0.00005060		 0.00031840		 0.00033413
Si		9.59785088		6.13571243		1.04588131		-0.00005060		-0.00031840		-0.00033413
Si		0.48135118		6.13571243		1.54421836		-0.00005060		-0.00031840		 0.00033413
Si		17.75164821		3.12434296		3.63598098		 0.00005060		 0.00031840		-0.00033413
Si		9.59785088		7.75436884		3.63598098		-0.00005060		 0.00031840		-0.00033413
Si		8.63514851		1.50568474		1.54421836		 0.00005060		-0.00031840		 0.00033413
Si		17.75164821		1.50568474		1.04588131		 0.00005060		-0.00031840		-0.00033413
Si		0.48135118		7.75436884		4.13431803		-0.00005060		 0.00031840		 0.00033413
O		3.34575539		3.15490147		0.17612713		-0.00027883		 0.00015638		-0.00005534
O		14.88724401		6.10515393		5.00407221		 0.00027883		-0.00015638		 0.00005534
O		5.77074431		6.10515393		2.76622680		 0.00027883		-0.00015638		-0.00005534
O		12.46225509		3.15490147		2.41397254		-0.00027883		 0.00015638		 0.00005534
O		14.88724401		7.78492917		2.41397254		 0.00027883		 0.00015638		 0.00005534
O		3.34575539		1.47512623		2.76622680		-0.00027883		-0.00015638		-0.00005534
O		12.46225509		1.47512623		5.00407221		-0.00027883		-0.00015638		 0.00005534
O		5.77074431		7.78492917		0.17612713		 0.00027883		 0.00015638		-0.00005534
O		5.67775601		4.65688126		0.22274891		-0.00005207		 0.00031934		-0.00010862
O		12.55524338		4.60317231		4.95745225		 0.00005207		-0.00031934		 0.00010862
O		3.43874369		4.60317231		2.81284858		 0.00005207		-0.00031934		-0.00010862
O		14.79425571		4.65688126		2.36735076		-0.00005207		 0.00031934		 0.00010862
O		12.55524338		0.02685356		2.36735076		 0.00005207		 0.00031934		 0.00010862
O		5.67775601		9.23320001		2.81284858		-0.00005207		-0.00031934		-0.00010862
O		14.79425571		9.23320001		4.95745225		-0.00005207		-0.00031934		 0.00010862
O		3.43874369		0.02685356		0.22274891		 0.00005207		 0.00031934		-0.00010862
O		5.51548232		2.05943551		4.30992734		-0.00004993		 0.00076515		-0.00011102
O		12.71751708		7.20061806		0.87027382		 0.00004993		-0.00076515		 0.00011102
O		3.60101738		7.20061806		1.71982767		 0.00004993		-0.00076515		-0.00011102
O		14.63198202		2.05943551		3.46037349		-0.00004993		 0.00076515		 0.00011102
O		12.71751708		6.68946321		3.46037349		 0.00004993		 0.00076515		 0.00011102
O		5.51548232		2.57059036		1.71982767		-0.00004993		-0.00076515		-0.00011102
O		14.63198202		2.57059036		0.87027382		-0.00004993		-0.00076515		 0.00011102
O		3.60101738		6.68946321		4.30992734		 0.00004993		 0.00076515		-0.00011102
O		10.25059226		3.16138330		4.13380021		 0.00042602		-0.00004437		-0.00001388
O		7.98240714		6.09867210		1.04640095		-0.00042602		 0.00004437		 0.00001388
O		17.09890683		6.09867210		1.54370054		-0.00042602		 0.00004437		-0.00001388
O		1.13409256		3.16138330		3.63650062		 0.00042602		-0.00004437		 0.00001388
O		7.98240714		7.79141100		3.63650062		-0.00042602		-0.00004437		 0.00001388
O		10.25059226		1.46864440		1.54370054		 0.00042602		 0.00004437		-0.00001388
O		1.13409256		1.46864440		1.04640095		 0.00042602		 0.00004437		 0.00001388
O		17.09890683		7.79141100		4.13380021		-0.00042602		-0.00004437		-0.00001388
O		7.88394894		4.47816322		3.57433703		 0.00022218		-0.00025285		-0.00032742
O		10.34905046		4.78189217		1.60586231		-0.00022218		 0.00025285		 0.00032742
O		1.23255076		4.78189217		0.98423736		-0.00022218		 0.00025285		-0.00032742
O		17.00044864		4.47816322		4.19596197		 0.00022218		-0.00025285		 0.00032742
O		10.34905046		9.10819092		4.19596197		-0.00022218		-0.00025285		 0.00032742
O		7.88394894		0.15186448		0.98423736		 0.00022218		 0.00025285		-0.00032742
O		17.00044864		0.15186448		1.60586231		 0.00022218		 0.00025285		 0.00032742
O		1.23255076		9.10819092		3.57433703		-0.00022218		-0.00025285		-0.00032742
O		8.17385363		1.80663680		3.12366105		-0.00018146		 0.00062458		-0.00012142
O		10.05914577		7.45341859		2.05654011		 0.00018146		-0.00062458		 0.00012142
O		0.94264607		7.45341859		0.53356138		 0.00018146		-0.00062458		-0.00012142
O		17.29035333		1.80663680		4.64663978		-0.00018146		 0.00062458		 0.00012142
O		10.05914577		6.43666450		4.64663978		 0.00018146		 0.00062458		 0.00012142
O		8.17385363		2.82339090		0.53356138		-0.00018146		-0.00062458		-0.00012142
O		17.29035333		2.82339090		2.05654011		-0.00018146		-0.00062458		 0.00012142
O		0.94264607		6.43666450		3.12366105		 0.00018146		 0.00062458		-0.00012142
