# total energy = -41273.4160375 eV	

CRYSTAL	
PRIMVEC	
		5.69780014		0.00000000		0.00000000	
		0.00000000		10.88890061		0.00000000	
		0.00000000		0.00000000		8.25709812	
PRIMCOORD
   56 1	
Mg		0.00000000		0.00000000		0.00000000		0.00000000		0.00000000		0.00000000	
Mg		0.00000000		5.44445031		0.00000000		0.00000000		0.00000000		0.00000000	
Mg		2.84890007		5.44445031		4.12855020		0.00000000		0.00000000		0.00000000	
Mg		2.84890007		0.00000000		4.12855020		0.00000000		0.00000000		0.00000000	
Mg		0.00000000		2.72222487		8.00773618		0.00000000		-0.00001628		-0.00035622	
Mg		0.00000000		8.16667517		0.24936422		0.00000000		 0.00001628		 0.00035622	
Mg		2.84890007		8.16667517		3.87918598		0.00000000		 0.00001627		-0.00035618	
Mg		2.84890007		2.72222487		4.37791499		0.00000000		-0.00001627		 0.00035618	
Mg		1.42445004		1.38180086		2.06427482		 0.00000006		-0.00089849		 0.00000007	
Mg		4.27335011		9.50709804		6.19282502		-0.00000006		 0.00089849		-0.00000007	
Mg		4.27335011		4.06264830		2.06427482		-0.00000006		 0.00086240		 0.00000008	
Mg		1.42445004		6.82625231		6.19282502		 0.00000006		-0.00086240		-0.00000008	
Mg		4.27335011		6.82625231		6.19282502		-0.00000006		-0.00086240		-0.00000008	
Mg		1.42445004		4.06264830		2.06427482		 0.00000006		 0.00086240		 0.00000008	
Mg		1.42445004		9.50709804		6.19282502		 0.00000006		 0.00089849		-0.00000007	
Mg		4.27335011		1.38180086		2.06427482		-0.00000006		-0.00089849		 0.00000007	
Si		0.00000000		1.30557911		5.09050239		0.00000000		-0.00024175		 0.00079257	
Si		0.00000000		9.58332150		3.16659801		0.00000000		 0.00024175		-0.00079257	
Si		0.00000000		4.13887120		5.09050239		0.00000000		 0.00027487		 0.00079506	
Si		0.00000000		6.75002942		3.16659801		0.00000000		-0.00027487		-0.00079506	
Si		2.84890007		6.75002942		0.96195219		0.00000000		-0.00027527		 0.00079616	
Si		2.84890007		4.13887120		7.29514821		0.00000000		 0.00027527		-0.00079616	
Si		2.84890007		9.58332150		0.96195219		0.00000000		 0.00024209		 0.00079357	
Si		2.84890007		1.30557911		7.29514821		0.00000000		-0.00024209		-0.00079357	
O		0.00000000		2.72222487		1.80169910		0.00000000		-0.00003929		 0.00031305	
O		0.00000000		8.16667517		6.45540130		0.00000000		 0.00003929		-0.00031305	
O		2.84890007		8.16667517		5.93024930		0.00000000		 0.00003928		 0.00031325	
O		2.84890007		2.72222487		2.32685110		0.00000000		-0.00003928		-0.00031325	
O		0.00000000		2.72222487		5.90960617		0.00000000		 0.00001845		 0.00010501	
O		0.00000000		8.16667517		2.34749423		0.00000000		-0.00001845		-0.00010501	
O		2.84890007		8.16667517		1.78105597		0.00000000		-0.00001846		 0.00010479	
O		2.84890007		2.72222487		6.47604443		0.00000000		 0.00001846		-0.00010479	
O		0.00000000		10.77783339		2.11794581		0.00000000		-0.00017208		 0.00002663	
O		0.00000000		0.11106722		6.13915402		0.00000000		 0.00017208		-0.00002663	
O		0.00000000		5.55551695		2.11794581		0.00000000		 0.00013073		 0.00002159	
O		0.00000000		5.33338309		6.13915402		-0.00000000		-0.00013073		-0.00002159	
O		2.84890007		5.33338309		6.24649601		0.00000000		-0.00013116		 0.00002218	
O		2.84890007		5.55551695		2.01060382		0.00000000		 0.00013116		-0.00002218	
O		2.84890007		0.11106722		6.24649601		0.00000000		 0.00017245		 0.00002717	
O		2.84890007		10.77783339		2.01060382		0.00000000		-0.00017245		-0.00002717	
O		1.48199782		1.33497919		8.20012639		-0.00053808		 0.00010016		-0.00036253	
O		4.21580232		9.55392142		0.05697401		 0.00053808		-0.00010016		 0.00036253	
O		4.21580232		4.10947112		8.20012639		 0.00053893		-0.00011036		-0.00036219	
O		1.48199782		6.77942893		0.05697401		-0.00053893		 0.00011036		 0.00036219	
O		4.21580232		6.77942893		0.05697401		 0.00053893		 0.00011036		 0.00036219	
O		1.48199782		4.10947112		8.20012639		-0.00053893		-0.00011036		-0.00036219	
O		1.48199782		9.55392142		0.05697401		-0.00053808		-0.00010016		 0.00036253	
O		4.21580232		1.33497919		8.20012639		 0.00053808		 0.00010016		-0.00036253	
O		4.33089789		6.77942893		4.07157619		-0.00053854		 0.00011039		-0.00036249	
O		1.36690225		4.10947112		4.18552421		 0.00053854		-0.00011039		 0.00036249	
O		1.36690225		9.55392142		4.07157619		 0.00053770		-0.00010016		-0.00036279	
O		4.33089789		1.33497919		4.18552421		-0.00053770		 0.00010016		 0.00036279	
O		1.36690225		1.33497919		4.18552421		 0.00053770		 0.00010016		 0.00036279	
O		4.33089789		9.55392142		4.07157619		-0.00053770		-0.00010016		-0.00036279	
O		4.33089789		4.10947112		4.18552421		-0.00053854		-0.00011039		 0.00036249	
O		1.36690225		6.77942893		4.07157619		 0.00053854		 0.00011039		-0.00036249	
