# total energy = -10315.7741029 eV

CRYSTAL
PRIMVEC
		4.97999984		0.00000000		0.00000000
		0.00000000		8.84999756		-0.70800160
		0.00000000		-0.22000145		2.75000073
PRIMECORD
   14 1
Si		0.00000000		0.00000000		0.00000000		0.00000000		0.00000000		0.00000000
Si		2.48999992		4.42499978		-0.35399980		0.00000000		0.00000000		0.00000000
Mg		0.40786199		2.83616469		1.13930693		 0.00026316		 0.00079812		-0.00020870
Mg		4.57213786		5.79383490		0.90269320		-0.00026316		-0.00079812		 0.00020870
Mg		2.08213793		7.26116497		0.78530713		-0.00026316		 0.00079812		-0.00020870
Mg		2.89786191		1.36883513		1.25669300		 0.00026316		-0.00079812		 0.00020870
O		1.07767197		0.28647997		1.34328175		 0.00043658		 0.00007053		-0.00024767
O		3.90232788		8.34352062		0.69871788		-0.00043658		-0.00007053		 0.00024767
O		1.41232796		4.71147975		0.98928195		-0.00043658		 0.00007053		-0.00024767
O		3.56767189		3.91851985		1.05271818		 0.00043658		-0.00007053		 0.00024767
O		1.95464994		2.73199505		-0.21856024		-0.00010819		 0.00070231		-0.00011961
O		3.02534991		6.11800600		-0.48943986		 0.00010819		-0.00070231		 0.00011961
O		0.53534998		7.15699482		-0.57256004		 0.00010819		 0.00070231		-0.00011961
O		4.44464986		1.69300473		-0.13544006		-0.00010819		-0.00070231		 0.00011961
