# total energy = -10314.4107354 eV

CRYSTAL
PRIMVEC
		4.97999984		0.00000000		0.00000000
		0.00000000		8.84999756		-1.06199991
		0.00000000		-0.32999969		2.75000073
PRIMECORD
   14 1
Si		0.00000000		0.00000000		0.00000000		-0.00000000		0.00000000		0.00000000
Si		2.48999992		4.42499978		-0.53099995		-0.00000000		0.00000000		0.00000000
Mg		0.40786199		2.78116507		1.02145972		 0.00084057		 0.00032275		-0.00013360
Mg		4.57213786		5.73883479		0.66654011		-0.00084057		-0.00032275		 0.00013360
Mg		2.08213793		7.20616485		0.49045977		-0.00084057		 0.00032275		-0.00013360
Mg		2.89786191		1.31383501		1.19754006		 0.00084057		-0.00032275		 0.00013360
O		1.07767197		0.23147985		1.32742195		-0.00050219		 0.00030983		 0.00090072
O		3.90232788		8.28852051		0.36057788		 0.00050219		-0.00030983		-0.00090072
O		1.41232796		4.65647963		0.79642199		 0.00050219		 0.00030983		 0.00090072
O		3.56767189		3.86351974		0.89157784		-0.00050219		-0.00030983		-0.00090072
O		1.95464994		2.73199505		-0.32783887		 0.00071826		-0.00067179		-0.00037144
O		3.02534991		6.11800600		-0.73416104		-0.00071826		 0.00067179		 0.00037144
O		0.53534998		7.15699482		-0.85883882		-0.00071826		-0.00067179		-0.00037144
O		4.44464986		1.69300473		-0.20316109		 0.00071826		 0.00067179		 0.00037144
