# total energy = -14250.3822591 eV

CRYSTAL
PRIMVEC
		7.85999966		0.00000000		0.00000000
		0.00000000		7.85999966		0.00000000
		0.00000000		0.00000000		4.89839895
PRIMECORD
   24 1
O		1.10503657		2.82496326		1.24585868		 0.00017550		-0.00017550		 0.00007743
O		6.75496309		5.03503797		1.24585868		-0.00017550		 0.00017550		 0.00007743
O		2.82496326		6.75496309		3.65254106		-0.00017550		-0.00017550		-0.00007743
O		5.03503797		1.10503657		3.65254106		 0.00017550		 0.00017550		-0.00007743
O		0.65096517		1.46384555		3.86160447		 0.00027127		 0.00050201		-0.00039515
O		7.20903449		6.39615411		3.86160447		-0.00027127		-0.00050201		-0.00039515
O		1.46384555		7.20903449		1.03679605		 0.00050201		-0.00027127		 0.00039515
O		6.39615411		0.65096517		1.03679605		-0.00050201		 0.00027127		 0.00039515
O		3.27903466		5.39384695		1.03679605		-0.00027127		 0.00050201		 0.00039515
O		4.58096500		2.46615428		1.03679605		 0.00027127		-0.00050201		 0.00039515
O		2.46615428		3.27903466		3.86160447		-0.00050201		-0.00027127		-0.00039515
O		5.39384695		4.58096500		3.86160447		 0.00050201		 0.00027127		-0.00039515
O		0.00000000		3.92999983		4.01325845		0.00000000		0.00000000		-0.00065196
O		3.92999983		0.00000000		0.88514129		0.00000000		0.00000000		 0.00065196
Ca		2.60686321		1.32313662		2.48319476		-0.00047453		 0.00047453		 0.00032069
Ca		5.25313645		6.53686304		2.48319476		 0.00047453		-0.00047453		 0.00032069
Ca		1.32313662		5.25313645		2.41520498		 0.00047453		 0.00047453		-0.00032069
Ca		6.53686304		2.60686321		2.41520498		-0.00047453		-0.00047453		-0.00032069
Si		1.09969334		2.83030649		4.58186497		-0.00053251		 0.00053251		 0.00002780
Si		6.76030789		5.02969317		4.58186497		 0.00053251		-0.00053251		 0.00002780
Si		2.83030649		6.76030789		0.31653476		 0.00053251		 0.00053251		-0.00002780
Si		5.02969317		1.09969334		0.31653476		-0.00053251		-0.00053251		-0.00002780
Mg		0.00000000		0.00000000		0.00000000		0.00000000		0.00000000		0.00000000
Mg		3.92999983		3.92999983		0.00000000		0.00000000		0.00000000		0.00000000
