# total energy = -14250.128373 eV

CRYSTAL
PRIMVEC
		7.85999966		0.00000000		0.00000000
		0.00000000		7.85999966		0.00000000
		0.00000000		0.00000000		5.27519947
PRIMECORD
   24 1
O		1.10503657		2.82496326		1.34169408		 0.00009582		-0.00009582		 0.00067845
O		6.75496309		5.03503797		1.34169408		-0.00009582		 0.00009582		 0.00067845
O		2.82496326		6.75496309		3.93350618		-0.00009582		-0.00009582		-0.00067845
O		5.03503797		1.10503657		3.93350618		 0.00009582		 0.00009582		-0.00067845
O		0.65096517		1.46384555		4.15865115		 0.00032254		 0.00065819		-0.00013554
O		7.20903449		6.39615411		4.15865115		-0.00032254		-0.00065819		-0.00013554
O		1.46384555		7.20903449		1.11654911		 0.00065819		-0.00032254		 0.00013554
O		6.39615411		0.65096517		1.11654911		-0.00065819		 0.00032254		 0.00013554
O		3.27903466		5.39384695		1.11654911		-0.00032254		 0.00065819		 0.00013554
O		4.58096500		2.46615428		1.11654911		 0.00032254		-0.00065819		 0.00013554
O		2.46615428		3.27903466		4.15865115		-0.00065819		-0.00032254		-0.00013554
O		5.39384695		4.58096500		4.15865115		 0.00065819		 0.00032254		-0.00013554
O		0.00000000		3.92999983		4.32197094		0.00000000		0.00000000		-0.00036561
O		3.92999983		0.00000000		0.95322932		0.00000000		0.00000000		 0.00036561
Ca		2.60686321		1.32313662		2.67421004		-0.00076157		 0.00076157		-0.00014671
Ca		5.25313645		6.53686304		2.67421004		 0.00076157		-0.00076157		-0.00014671
Ca		1.32313662		5.25313645		2.60099021		 0.00076157		 0.00076157		 0.00014671
Ca		6.53686304		2.60686321		2.60099021		-0.00076157		-0.00076157		 0.00014671
Si		1.09969334		2.83030649		4.93431679		-0.00021113		 0.00021113		 0.00094360
Si		6.76030789		5.02969317		4.93431679		 0.00021113		-0.00021113		 0.00094360
Si		2.83030649		6.76030789		0.34088426		 0.00021113		 0.00021113		-0.00094360
Si		5.02969317		1.09969334		0.34088426		-0.00021113		-0.00021113		-0.00094360
Mg		0.00000000		0.00000000		0.00000000		0.00000000		0.00000000		0.00000000
Mg		3.92999983		3.92999983		0.00000000		0.00000000		0.00000000		0.00000000
