# total energy = -7658.58768514 eV

CRYSTAL
PRIMVEC
		5.54070013		0.00000000		0.00000000
		-2.77035006		4.79838483		0.00000000
		0.00000000		0.00000000		4.48023783
PRIMECORD
   15 1
Mg		0.00000000		0.00000000		0.00000000		0.00000000		0.00000000		0.00000000
Mg		0.00000000		3.19892488		0.04883518		0.00000000		-0.00000000		 0.00047630
Mg		2.77035006		1.59946216		4.43140321		0.00000000		0.00000000		-0.00047630
O		0.91310683		1.60554031		0.98565177		-0.00018757		 0.00017390		 0.00007117
O		1.85724213		3.19284729		3.49458495		 0.00018757		-0.00017390		-0.00007117
O		0.92335823		4.78639088		0.98565177		-0.00005681		-0.00024940		 0.00007117
O		1.84699183		0.01199617		3.49458495		 0.00005681		 0.00024940		-0.00007117
O		-1.83646506		3.20484235		0.98565177		 0.00024439		 0.00007549		 0.00007117
O		4.60681512		1.59354414		3.49458495		-0.00024439		-0.00007549		-0.00007117
H		0.78594776		1.67607730		1.89066031		 0.00019983		-0.00006178		-0.00017712
H		1.98440231		3.12231030		2.58957697		-0.00019983		 0.00006178		 0.00017712
H		0.92585099		4.64100013		1.89066031		-0.00004641		 0.00020395		-0.00017712
H		1.84449907		0.15738691		2.58957697		 0.00004641		-0.00020395		 0.00017712
H		-1.71179931		3.27969721		1.89066031		-0.00015342		-0.00014217		-0.00017712
H		4.48214937		1.51868928		2.58957697		 0.00015342		 0.00014217		 0.00017712
