# total energy = -9075.54124796 eV	

CRYSTAL	
PRIMVEC	
		5.11310008		0.00000000		0.00000000	
		0.00000000		5.18980170		0.20759186	
		-0.00383994		0.29321072		7.33029878	
PRIMCOORD
   28 1	
Mg		3.87988016		2.74115289		1.94660680		 0.00005104		-0.00015118		-0.00006160	
Mg		1.22938202		0.29227298		5.49329998		-0.00011338		-0.00039448		 0.00071449	
Si		1.27731580		0.14076978		1.83527313		 0.00015091		 0.00004547		-0.00002353	
Si		3.83194690		2.88227599		5.60421897		-0.00027854		-0.00001736		-0.00002273	
O		1.85420490		5.21176297		3.73602105		 0.00004720		-0.00015464		-0.00017474	
O		3.25505627		2.62741812		3.89611630		-0.00002877		 0.00005175		 0.00019821	
O		4.40885184		3.14115123		7.28320815		-0.00001793		-0.00044657		-0.00008486	
O		0.70040983		0.26594103		0.17164575		 0.00028519		 0.00028835		-0.00000209	
O		4.63492194		4.37060483		5.24659392		 0.00009276		-0.00015739		 0.00064961	
O		0.47434025		1.66252500		2.31330197		 0.00076015		-0.00002558		 0.00048381	
O		2.29781695		3.66561417		6.01611804		 0.00044855		-0.00014880		-0.00028595	
O		2.81144524		0.89361394		1.48482228		-0.00001956		-0.00017033		 0.00010518	
O		4.84599122		4.44806983		2.51986508		-0.00016170		-0.00036457		-0.00020041	
O		0.26327097		1.95872587		5.05497692		 0.00023740		 0.00032534		-0.00043989	
O		1.99853084		3.71158708		1.46580615		-0.00019681		 0.00041555		-0.00008098	
O		3.11073084		1.30434314		6.05340123		-0.00021527		 0.00022741		 0.00008806	
H		2.33481023		4.31079025		3.75121207		-0.00016761		-0.00007913		 0.00017211	
H		2.77445196		1.72234112		3.80868331		-0.00011687		 0.00012916		-0.00025867	
H		4.92013526		3.91648383		7.36545135		-0.00001388		 0.00010841		 0.00004166	
H		0.18912692		1.03716781		0.15126493		 0.00000809		 0.00000180		 0.00008772	
H		1.56163791		3.06057695		5.78699593		-0.00008415		 0.00024881		 0.00034176	
H		3.54762427		0.30499693		1.66619723		-0.00021819		 0.00001850		 0.00006096	
H		3.95984700		5.14983719		5.55586796		 0.00013421		 0.00029041		-0.00000553	
H		1.14941518		2.41947396		2.06547410		-0.00021664		 0.00023344		-0.00037866	
H		4.77904131		4.55218891		3.43885125		-0.00016669		-0.00013329		-0.00037172	
H		0.33022088		1.98954201		4.14138813		-0.00029161		-0.00013844		-0.00003284	
H		2.10639424		3.61207183		0.53236678		 0.00027131		 0.00002631		-0.00027840	
H		3.00286794		1.27930326		6.98185788		-0.00017919		-0.00002899		-0.00024096	
