# total energy = -9072.76756765 eV	

CRYSTAL	
PRIMVEC	
		5.11310008		0.00000000		0.00000000	
		0.00000000		5.18980170		-0.83036745	
		-0.00383994		-1.17284801		7.33029878	
PRIMCOORD
   28 1	
Mg		3.87988016		2.37317229		1.41309622		-0.00009662		 0.00178434		 0.00015175	
Mg		1.22938202		-0.80580617		5.47876906		-0.00148385		-0.00074951		 0.00033354	
Si		1.27731580		-0.22574490		1.82178017		-0.00020796		 0.00004658		-0.00133156	
Si		3.83194690		1.78273092		5.07174533		-0.00102996		-0.00039445		-0.00014852	
O		1.85420490		4.50512231		2.72193429		-0.00099416		 0.00051778		 0.00198371	
O		3.25505627		1.86799902		3.40100920		 0.00040730		 0.00214057		-0.00059751	
O		4.40885184		1.70734490		6.71233002		-0.00385638		 0.00120563		-0.00118300	
O		0.70040983		0.23368708		0.11974778		 0.00090449		 0.00067976		 0.00174073	
O		4.63492194		3.35462622		4.41311208		-0.00047751		 0.00015121		 0.00186998	
O		0.47434025		1.21244488		1.99879979		-0.00378820		-0.00010674		-0.00090913	
O		2.29781695		2.48983380		5.33002591		-0.00097559		 0.00048944		-0.00007715	
O		2.81144524		0.60333405		1.31770980		 0.00037868		-0.00042757		 0.00044502	
O		4.84599122		3.97893114		1.64901721		 0.00166374		-0.00081847		-0.00131877	
O		0.26327097		0.96180583		4.70310922		 0.00141003		 0.00081903		 0.00115387	
O		1.99853084		3.44769589		0.73404381		 0.00141518		-0.00059040		 0.00056592	
O		3.11073084		0.10217406		5.84062008		-0.00092431		-0.00040357		-0.00088393	
H		2.33481023		3.59388709		2.91773125		 0.00018246		-0.00204359		-0.00003607	
H		2.77445196		0.97318401		3.49418215		-0.00039440		-0.00268134		-0.00164281	
H		4.92013526		2.47241500		6.63991727		 0.00486800		-0.00059120		 0.00058035	
H		0.18912692		1.01517688		-0.05528897		-0.00170129		-0.00183792		-0.00084218	
H		1.56163791		1.92584710		5.22027015		-0.00061410		 0.00014685		-0.00031432	
H		3.54762427		-0.02633298		1.61845110		-0.00073964		 0.00004281		-0.00049096	
H		3.95984700		4.07814829		4.56876916		 0.00013610		 0.00034079		-0.00054030	
H		1.14941518		2.02510413		1.59735394		 0.00435346		 0.00232708		 0.00043416	
H		4.77904131		3.89979211		2.55450889		 0.00091917		 0.00012618		 0.00029673	
H		0.33022088		1.17587906		3.77602594		 0.00014042		 0.00032507		 0.00034628	
H		2.10639424		3.53437010		-0.18693903		 0.00084926		-0.00100558		-0.00046636	
H		3.00286794		-0.10905476		6.78153225		-0.00034431		 0.00050722		 0.00088054	
