# total energy = -9074.85407991 eV	

CRYSTAL	
PRIMVEC	
		5.11310008		0.00000000		0.00000000	
		0.00000000		5.18980170		0.41518373	
		-0.00383994		0.58642656		7.33029878	
PRIMCOORD
   28 1	
Mg		3.87988016		2.81474881		2.05330902		 0.00035682		 0.00014251		 0.00031056	
Mg		1.22938202		0.51188881		5.49620729		-0.00034066		 0.00018927		 0.00008761	
Si		1.27731580		0.21407323		1.83797183		-0.00057193		-0.00065767		 0.00020953	
Si		3.83194690		3.10218480		5.71071411		 0.00014771		-0.00015462		-0.00015583	
O		1.85420490		5.35309110		3.93883881		 0.00013562		 0.00022565		 0.00051702	
O		3.25505627		2.77930225		3.99513813		-0.00026300		 0.00039371		-0.00068308	
O		4.40885184		3.42791331		7.39738317		 0.00030798		-0.00026629		 0.00072352	
O		0.70040983		0.27239120		0.18202585		 0.00031140		 0.00060816		 0.00023793	
O		4.63492194		4.57380096		5.41329019		 0.00082869		 0.00040397		 0.00005355	
O		0.47434025		1.75254113		2.37620180		-0.00051034		 0.00057196		 0.00037298	
O		2.29781695		3.90077025		6.15333626		-0.00038563		 0.00025813		-0.00002095	
O		2.81144524		0.95167013		1.51824406		 0.00007491		-0.00057222		-0.00007775	
O		4.84599122		4.54189829		2.69403517		-0.00093495		-0.00048385		 0.00003473	
O		0.26327097		2.15811018		5.12535107		 0.00080817		-0.00016302		-0.00036771	
O		1.99853084		3.76436501		1.61215892		 0.00032752		 0.00064288		-0.00054656	
O		3.11073084		1.54477593		6.09595807		-0.00001877		-0.00010330		 0.00015265	
H		2.33481023		4.45417027		3.91790885		 0.00024531		-0.00038041		-0.00016405	
H		2.77445196		1.87217182		3.87158416		-0.00044576		-0.00002635		 0.00034491	
H		4.92013526		4.20529831		7.51055806		 0.00003659		-0.00039881		-0.00015721	
H		0.18912692		1.04156712		0.19257622		-0.00026302		-0.00056834		 0.00028148	
H		1.56163791		3.28752292		5.90034211		-0.00002596		 0.00006888		 0.00034536	
H		3.54762427		0.37126322		1.67574595		 0.00006074		-0.00026401		-0.00040419	
H		3.95984700		5.36417528		5.75328833		-0.00008894		 0.00021244		 0.00041094	
H		1.14941518		2.49834813		2.15909803		 0.00029579		 0.00043524		-0.00062184	
H		4.77904131		4.68266807		3.61572003		 0.00015739		-0.00028183		-0.00037024	
H		0.33022088		2.15227511		4.21446098		-0.00050260		 0.00003839		 0.00018898	
H		2.10639424		3.62761208		0.67622794		 0.00026862		 0.00004364		-0.00061024	
H		3.00286794		1.55697528		7.02192414		-0.00001170		 0.00008588		-0.00009210	
