# total energy = -9072.76930918 eV	

CRYSTAL	
PRIMVEC	
		5.11310008		0.00000000		0.00000000	
		0.00000000		5.18980170		0.83036745	
		-0.00383994		1.17284801		7.33029878	
PRIMCOORD
   28 1	
Mg		3.87988016		2.96194218		2.26671396		-0.00024229		-0.00047070		-0.00049675	
Mg		1.22938202		0.95111996		5.50201884		-0.00015918		 0.00116551		-0.00089892	
Si		1.27731580		0.36067910		1.84336922		 0.00152698		-0.00047267		 0.00011272	
Si		3.83194690		3.54200293		5.92370285		-0.00012768		-0.00043040		-0.00006405	
O		1.85420490		5.63574685		4.34447331		 0.00131154		-0.00046285		 0.00183009	
O		3.25505627		3.08306999		4.19318026		 0.00046119		-0.00166084		 0.00112664	
O		4.40885184		4.00143492		7.62573524		 0.00010424		 0.00024135		-0.00109420	
O		0.70040983		0.28529309		0.20278504		-0.00151712		 0.00058996		 0.00072604	
O		4.63492194		4.98019323		5.74668323		 0.00175701		 0.00092966		 0.00154299	
O		0.47434025		1.93257287		2.50200298		 0.00142767		-0.00123895		-0.00111236	
O		2.29781695		4.37108188		6.42777322		 0.00067218		-0.00137832		-0.00171947	
O		2.81144524		1.06778198		1.58508915		 0.00095306		 0.00101445		 0.00019848	
O		4.84599122		4.72955315		3.04237380		-0.00099200		 0.00142186		-0.00108008	
O		0.26327097		2.55687881		5.26609784		-0.00236675		-0.00030686		 0.00078395	
O		1.99853084		3.86992087		1.90486294		 0.00037572		 0.00016655		-0.00030491	
O		3.11073084		2.02564408		6.18107023		-0.00115888		-0.00033582		-0.00037992	
H		2.33481023		4.74093184		4.25130189		-0.00056276		 0.00003868		 0.00061764	
H		2.77445196		2.17183425		3.99738432		 0.00153530		 0.00023672		-0.00086205	
H		4.92013526		4.78292522		7.80077199		 0.00040689		-0.00040804		-0.00001053	
H		0.18912692		1.05036319		0.27519778		-0.00009791		 0.00011326		-0.00024680	
H		1.56163791		3.74141486		6.12703192		-0.00020287		 0.00028251		 0.00090995	
H		3.54762427		0.50379426		1.69484491		 0.00032609		-0.00034756		 0.00030268	
H		3.95984700		5.79285095		6.14812806		-0.00208092		 0.00141758		 0.00007601	
H		1.14941518		2.65609596		2.34634589		-0.00005796		 0.00037807		 0.00005675	
H		4.77904131		4.94362689		3.96945605		-0.00044209		 0.00022576		-0.00063166	
H		0.33022088		2.47773978		4.36060514		-0.00037491		-0.00011524		-0.00011895	
H		2.10639424		3.65869206		0.96395077		 0.00039415		 0.00029913		 0.00046672	
H		3.00286794		2.11231828		7.10205409		-0.00086865		-0.00089279		 0.00027000	
