# total energy = -21542.4967759 eV	

CRYSTAL	
PRIMVEC	
		5.44404009		0.00000000		0.00000000	
		0.00000000		8.92299947		0.00000000	
		-0.15156752		-0.11067189		9.18820044	
PRIMCOORD
   42 1	
Mg		0.00000000		0.00000000		0.00000000		0.00000000		0.00000000		0.00000000	
Mg		2.72202005		4.46150028		0.00000000		0.00000000		0.00000000		0.00000000	
Mg		2.72202005		1.48648317		0.00000000		 0.00004669		-0.00037729		-0.00001708	
Mg		2.72202005		7.43651794		0.00000000		-0.00004669		 0.00037729		 0.00001708	
Mg		0.00000000		5.94798291		0.00000000		 0.00004748		-0.00038933		-0.00001481	
Mg		0.00000000		2.97501711		0.00000000		-0.00004748		 0.00038933		 0.00001481	
Si		4.49442693		1.45641900		2.67376625		 0.00005587		-0.00017143		 0.00009503	
Si		0.79804510		7.35591130		6.51443310		-0.00005587		 0.00017143		-0.00009503	
Si		1.77240688		5.91791929		2.67376625		 0.00005948		-0.00021323		 0.00008181	
Si		3.52006515		2.89440993		6.51443310		-0.00005948		 0.00021323		-0.00008181	
Si		1.77240688		2.94067121		2.67376625		-0.00005424		-0.00021343		 0.00006838	
Si		3.52006515		5.87165910		6.51443310		 0.00005424		 0.00021343		-0.00006838	
Si		4.49442693		7.40217094		2.67376625		-0.00005369		-0.00029164		 0.00006911	
Si		0.79804619		1.41015882		6.51443310		 0.00005369		 0.00029164		-0.00006911	
O		1.79836188		2.95861204		1.08053199		-0.00077176		-0.00031010		 0.00025509	
O		3.49411014		5.85371826		8.10766737		 0.00077176		 0.00031010		-0.00025509	
O		4.52038193		7.42011232		1.08053199		-0.00076630		-0.00030370		 0.00025997	
O		0.77209010		1.39221798		8.10766737		 0.00076630		 0.00030370		-0.00025997	
O		4.52038193		1.47694793		1.08053199		-0.00071404		 0.00063140		 0.00014239	
O		0.77209010		7.33538237		8.10766737		 0.00071404		-0.00063140		-0.00014239	
O		1.79836188		5.93844822		1.08053199		-0.00071859		 0.00063654		 0.00013592	
O		3.49411014		2.87388209		8.10766737		 0.00071859		-0.00063654		-0.00013592	
O		1.79563496		-0.01246195		1.03459082		 0.00015696		 0.00034895		-0.00026707	
O		3.49683706		-0.09820885		8.15360799		-0.00015696		-0.00034895		 0.00026707	
O		4.51765610		4.44903887		1.03459082		 0.00015674		 0.00034623		-0.00033869	
O		0.77481702		4.36329089		8.15360799		-0.00015674		-0.00034623		 0.00033869	
O		1.86136413		4.42297608		3.19841221		 0.00034958		-0.00008884		-0.00004020	
O		3.43110899		4.38935423		5.98978715		-0.00034958		 0.00008884		 0.00004020	
O		4.58338417		-0.03852475		3.19841221		 0.00034849		-0.00005408		-0.00002465	
O		0.70908786		-0.07214605		5.98978715		-0.00034849		 0.00005408		 0.00002465	
O		3.07667912		2.11174097		3.20576329		 0.00011601		-0.00019712		-0.00005608	
O		2.21579291		6.70058933		5.98243715		-0.00011601		 0.00019712		 0.00005608	
O		0.35465907		6.57324126		3.20576329		 0.00006214		-0.00015942		-0.00005600	
O		4.93781296		2.23908905		5.98243715		-0.00006214		 0.00015942		 0.00005600	
O		0.35460408		2.27253288		3.20576329		 0.00018278		-0.00057516		 0.00010548	
O		4.93786794		6.53979688		5.98243715		-0.00018278		 0.00057516		-0.00010548	
O		3.07662522		6.73403316		3.20576329		 0.00023581		-0.00053823		 0.00010381	
O		2.21584790		2.07829606		5.98243715		-0.00023581		 0.00053823		-0.00010381	
H		1.78220615		-0.00881390		1.86520381		 0.00041425		 0.00004197		 0.00047291	
H		3.51026588		8.82114421		7.32299500		-0.00041425		-0.00004197		-0.00047291	
H		4.50422620		4.45268584		1.86520381		 0.00041451		 0.00004262		 0.00053581	
H		0.78824583		4.35964284		7.32299500		-0.00041451		-0.00004262		-0.00053581	
