# total energy = -18390.6683007 eV	

CRYSTAL	
PRIMVEC	
		10.80644653		0.00000000		0.00000000	
		0.00000000		6.27625910		0.00000000	
		0.00000000		0.00000000		4.76954807	
PRIMCOORD
   28 1	
Mg		0.00000000		0.00000000		0.00000000		-0.00000012		-0.00000001		-0.00000000	
Mg		5.40322438		0.00000000		2.38477292		 0.00000024		-0.00000008		-0.00000008	
Mg		0.00000000		3.13813066		0.00000000		-0.00000011		-0.00000006		 0.00000001	
Mg		5.40322438		3.13813066		2.38477292		 0.00000015		 0.00000003		-0.00000002	
Ca		2.96941169		1.56906477		4.64283859		 0.00026689		-0.00000145		-0.00001536	
Ca		7.83703707		4.70719654		0.12670615		-0.00026658		 0.00000150		 0.00001551	
Ca		2.43380714		4.70719654		2.25806344		-0.00026847		 0.00000162		-0.00001631	
Ca		8.37264162		1.56906477		2.51148130		 0.00026829		-0.00000162		 0.00001622	
Si		0.87113716		1.56906588		1.96396927		 0.00001301		-0.00000014		-0.00003373	
Si		9.93531270		4.70719654		2.80557547		-0.00001358		 0.00000013		 0.00003436	
Si		4.53207610		4.70719543		4.34874108		-0.00001311		 0.00000025		-0.00003408	
Si		6.27437265		1.56906477		0.42080366		 0.00001369		-0.00000029		 0.00003552	
O		0.82499372		1.56906588		3.58003516		 0.00011013		 0.00002573		-0.00013405	
O		9.98145503		4.70719654		1.18951069		-0.00010904		-0.00002573		 0.00013374	
O		4.57820510		4.70719654		1.19526223		-0.00011325		-0.00002534		-0.00013334	
O		6.22824365		1.56906477		3.57428362		 0.00011209		 0.00002536		 0.00013235	
O		4.80397067		1.56906588		1.18855636		-0.00019745		 0.00002536		-0.00021813	
O		6.00247919		4.70719654		3.58098949		 0.00019720		-0.00002534		 0.00021772	
O		0.59926037		4.70719654		3.57333151		 0.00019635		-0.00002578		-0.00021757	
O		10.20718839		1.56906588		1.19621323		-0.00019627		 0.00002578		 0.00021725	
O		1.60822015		0.26560420		1.29262074		 0.00016577		 0.00005588		-0.00005700	
O		9.19822860		6.01065712		3.47692400		-0.00016514		-0.00005588		 0.00005694	
O		3.79499089		6.01065712		3.67739367		-0.00016465		-0.00005628		-0.00005739	
O		7.01145786		0.26560309		1.09215107		 0.00016406		 0.00005650		 0.00005749	
O		9.19822860		3.40373486		3.47692400		-0.00016477		 0.00010485		 0.00005712	
O		1.60822015		2.87252646		1.29262074		 0.00016532		-0.00010477		-0.00005706	
O		7.01145786		2.87252646		1.09215218		 0.00016407		-0.00010511		 0.00005751	
O		3.79499089		3.40373486		3.67739367		-0.00016472		 0.00010487		-0.00005761	
