# total energy = -18390.3502753 eV	

CRYSTAL	
PRIMVEC	
		10.70998014		0.00000000		0.00000000	
		0.00000000		6.24675147		0.00000000	
		0.00000000		0.00000000		4.74795062	
PRIMCOORD
   28 1	
Mg		0.00000000		0.00000000		0.00000000		 0.00000049		-0.00000010		-0.00000033	
Mg		5.35499007		0.00000000		2.37397309		-0.00000063		 0.00000012		-0.00000025	
Mg		0.00000000		3.12337462		0.00000000		 0.00000064		 0.00000015		-0.00000033	
Mg		5.35499007		3.12337462		2.37397309		-0.00000051		-0.00000007		-0.00000022	
Ca		2.93852311		1.56168676		4.61389200		 0.00028941		-0.00000147		-0.00017526	
Ca		7.77145814		4.68506138		0.13405418		-0.00029027		 0.00000145		 0.00017495	
Ca		2.41646141		4.68506138		2.23991336		-0.00029106		 0.00000146		-0.00017555	
Ca		8.29351985		1.56168676		2.50803282		 0.00029166		-0.00000148		 0.00017554	
Si		0.86053730		1.56168676		1.95593355		 0.00001999		-0.00000018		-0.00010561	
Si		9.84944395		4.68506138		2.79201263		-0.00001837		 0.00000010		 0.00010560	
Si		4.49444277		4.68506138		4.32990664		-0.00001957		 0.00000013		-0.00010462	
Si		6.21553849		1.56168676		0.41804065		 0.00001788		-0.00000024		 0.00010435	
O		0.81075874		1.56168787		3.56795214		 0.00018333		 0.00002264		-0.00028437	
O		9.89922141		4.68506138		1.17999404		-0.00018723		-0.00002275		 0.00028444	
O		4.54421134		4.68506138		1.19397572		-0.00018364		-0.00002279		-0.00028465	
O		6.16576992		1.56168787		3.55397046		 0.00018764		 0.00002271		 0.00028479	
O		4.74908715		1.56168676		1.18690766		-0.00009812		 0.00002269		-0.00018385	
O		5.96089410		4.68506138		3.56103962		 0.00009795		-0.00002271		 0.00018474	
O		0.60590847		4.68506138		3.56088853		 0.00009759		-0.00002281		-0.00018383	
O		10.10407167		1.56168676		1.18705765		-0.00009720		 0.00002278		 0.00018510	
O		1.59746253		0.26222904		1.28554269		 0.00023979		 0.00007407		 0.00000705	
O		9.11251761		5.98452020		3.46240460		-0.00024171		-0.00007500		-0.00000714	
O		3.75751754		5.98452131		3.65951578		-0.00023920		-0.00007354		 0.00000620	
O		6.95246260		0.26222682		1.08843040		 0.00024124		 0.00007446		-0.00000626	
O		9.11251761		3.38560367		3.46240460		-0.00024155		 0.00011535		-0.00000734	
O		1.59746253		2.86114558		1.28554269		 0.00023967		-0.00011427		 0.00000711	
O		6.95246260		2.86114669		1.08843151		 0.00024089		-0.00011508		-0.00000633	
O		3.75751865		3.38560144		3.65951578		-0.00023913		 0.00011439		 0.00000608	
