# total energy = -20636.9749018 eV

CRYSTAL
PRIMVEC
		4.74599854		0.00000000		-0.37967893
		0.00000000		10.17999940		0.00000000
		-0.47807788		0.00000000		5.97600211
PRIMECORD
   28 1
Si		1.90275017		0.95590200		1.33221812		-0.00008765		-0.00039038		 0.00045444
Si		2.36516906		9.22409788		4.26410173		 0.00008765		 0.00039038		-0.00045444
Si		4.03671097		4.13409770		4.13037781		-0.00008765		 0.00039038		 0.00045444
Si		0.23120921		6.04590170		1.46594204		 0.00008765		-0.00039038		-0.00045444
Mg		0.00000000		0.00000000		0.00000000		0.00000000		0.00000000		0.00000000
Mg		2.37299975		5.08999970		-0.18983994		-0.00000000		0.00000000		-0.00000000
Mg		-0.23903989		0.00000000		2.98800010		0.00000000		0.00000000		0.00000000
Mg		2.13395985		5.08999970		2.79815969		0.00000000		0.00000000		0.00000000
Mg		4.58566400		2.82189599		1.11758490		 0.00057468		-0.00065152		-0.00001039
Mg		-0.31774382		7.35810389		4.47873495		-0.00057468		 0.00065152		 0.00001039
Mg		1.97362389		2.26810371		4.29542494		 0.00057468		 0.00065152		-0.00001039
Mg		2.29429487		7.91189569		1.30089491		-0.00057468		-0.00065152		 0.00001039
O		3.51638967		0.93554184		1.20312681		-0.00034061		 0.00020830		 0.00042821
O		0.75152908		9.24445756		4.39319304		 0.00034061		-0.00020830		-0.00042821
O		0.90435098		4.15445786		4.38096685		-0.00034061		-0.00020830		 0.00042821
O		3.36356872		6.02554201		1.21535300		 0.00034061		 0.00020830		-0.00042821
O		0.92554911		4.54944203		1.41039403		-0.00005266		 0.00006071		-0.00056872
O		3.34237107		5.63055785		4.18592486		 0.00005266		-0.00006071		 0.00056872
O		3.05950896		0.54055815		4.20855372		-0.00005266		-0.00006071		-0.00056872
O		1.20841075		9.63944173		1.38776518		 0.00005266		 0.00006071		 0.00056872
O		1.30204377		1.65730413		0.09356399		-0.00081766		 0.00002656		-0.00045660
O		2.96587593		8.52269575		5.50275586		 0.00081766		-0.00002656		 0.00045660
O		3.22880401		3.43269605		5.48172199		-0.00005589		-0.00032592		-0.00005091
O		1.03911617		6.74730383		0.11459786		 0.00005589		 0.00032592		 0.00005091
O		3.17307603		8.52269575		2.91275802		 0.00005589		-0.00032592		 0.00005091
O		1.09484416		1.65730413		2.68356183		-0.00005589		 0.00032592		-0.00005091
O		0.83191608		6.74730383		2.70459570		 0.00081766		 0.00002656		 0.00045660
O		3.43600410		3.43269605		2.89172273		-0.00081766		-0.00002656		-0.00045660
