# total energy = -41261.9443128 eV

CRYSTAL
PRIMVEC
		8.12000106		0.97439816		0.00000000
		0.97439816		8.12000106		0.00000000
		0.00000000		0.00000000		8.12000106
PRIMECORD
   56 1
Si		1.13680031		1.13680031		1.01499993		 0.00000001		 0.00000001		-0.00000322
Si		7.95759973		7.95759973		7.10499949		-0.00000001		-0.00000001		 0.00000322
Si		5.19680002		1.62400021		5.07499964		 0.00000002		 0.00000003		-0.00000329
Si		3.89760002		7.47039983		3.04499978		-0.00000002		-0.00000003		 0.00000329
Si		1.62400021		5.19680002		5.07499964		 0.00000003		 0.00000002		-0.00000329
Si		7.47039983		3.89760002		3.04499978		-0.00000003		-0.00000002		 0.00000329
Si		5.68399992		5.68399992		1.01499993		-0.00000000		-0.00000000		-0.00000325
Si		3.41040012		3.41040012		7.10499949		0.00000000		0.00000000		 0.00000325
Mg		4.54719961		4.54719961		4.05999971		0.00000000		0.00000000		0.00000000
Mg		2.76079970		6.33359951		0.00000000		-0.00000001		 0.00000001		0.00000000
Mg		6.33359951		2.76079970		0.00000000		 0.00000001		-0.00000001		0.00000000
Mg		6.08999956		0.73079985		2.02999985		0.00000000		 0.00000002		-0.00000002
Mg		2.02999985		0.24359995		6.08999956		-0.00000000		-0.00000002		 0.00000002
Mg		0.24359995		2.02999985		6.08999956		-0.00000002		-0.00000000		 0.00000002
Mg		0.73079985		6.08999956		2.02999985		 0.00000002		0.00000000		-0.00000002
Mg		4.05999971		0.48719990		0.00000000		0.00000000		0.00000000		0.00000000
Mg		2.27359980		2.27359980		4.05999971		0.00000000		0.00000000		 0.00000001
Mg		6.82079941		6.82079941		4.05999971		-0.00000000		-0.00000000		-0.00000001
Mg		6.57719946		4.79079956		6.08999956		-0.00000001		-0.00000000		 0.00000002
Mg		2.51719975		4.30359966		2.02999985		 0.00000001		0.00000000		-0.00000002
Mg		0.48719990		4.05999971		0.00000000		0.00000000		0.00000000		0.00000000
Mg		4.30359966		2.51719975		2.02999985		0.00000000		 0.00000001		-0.00000002
Mg		4.79079956		6.57719946		6.08999956		-0.00000000		-0.00000001		 0.00000002
Mg		0.00000000		0.00000000		4.05999971		0.00000000		0.00000000		0.00000000
O		2.19720673		2.19720673		1.96179157		-0.00000744		-0.00000744		-0.00054831
O		6.89719249		6.89719249		6.15820785		 0.00000744		 0.00000744		 0.00054831
O		4.13639279		0.56359298		6.02179210		 0.00000744		 0.00000744		-0.00054829
O		4.95800643		8.53080706		2.09820814		-0.00000744		-0.00000744		 0.00054829
O		0.79082333		6.02997690		4.12820799		-0.00039657		 0.00039656		 0.00042541
O		8.30357670		3.06442314		3.99179225		 0.00039657		-0.00039656		-0.00042541
O		6.51717680		4.85082304		0.06820828		 0.00039657		-0.00039655		 0.00042543
O		2.57722324		4.24357699		8.05179196		-0.00039657		 0.00039655		-0.00042543
O		8.53080706		4.95800643		2.09820814		-0.00000744		-0.00000744		 0.00054829
O		0.56359298		4.13639279		6.02179210		 0.00000744		 0.00000744		-0.00054829
O		4.24357699		2.57722324		8.05179196		 0.00039655		-0.00039657		-0.00042543
O		4.85082304		6.51717680		0.06820828		-0.00039655		 0.00039657		 0.00042543
O		3.06442314		8.30357670		3.99179225		-0.00039656		 0.00039657		-0.00042541
O		6.02997690		0.79082333		4.12820799		 0.00039656		-0.00039657		 0.00042541
O		2.68440663		6.25720644		6.02179210		-0.00000745		-0.00000744		-0.00054833
O		6.40999259		2.83719278		2.09820814		 0.00000745		 0.00000744		 0.00054833
O		4.62359269		4.62359269		1.96179157		 0.00000745		 0.00000745		-0.00054829
O		4.47080653		4.47080653		6.15820785		-0.00000745		-0.00000745		 0.00054829
O		0.30362262		1.96997719		0.06820828		-0.00039655		 0.00039656		 0.00042542
O		8.79077660		7.12442285		8.05179196		 0.00039655		-0.00039656		-0.00042542
O		9.01800696		9.01800696		6.15820785		-0.00000746		-0.00000746		 0.00054829
O		0.07639308		0.07639308		1.96179157		 0.00000746		 0.00000746		-0.00054829
O		4.73077689		6.63722295		3.99179225		 0.00039657		-0.00039654		-0.00042543
O		4.36362314		2.45717709		4.12820799		-0.00039657		 0.00039654		 0.00042543
O		6.25720644		2.68440663		6.02179210		-0.00000744		-0.00000745		-0.00054833
O		2.83719278		6.40999259		2.09820814		 0.00000744		 0.00000745		 0.00054833
O		2.45717709		4.36362314		4.12820799		 0.00039654		-0.00039657		 0.00042543
O		6.63722295		4.73077689		3.99179225		-0.00039654		 0.00039657		-0.00042543
O		7.12442285		8.79077660		8.05179196		-0.00039656		 0.00039655		-0.00042542
O		1.96997719		0.30362262		0.06820828		 0.00039656		-0.00039655		 0.00042542
O		6.74440715		6.74440715		1.96179157		-0.00000745		-0.00000745		-0.00054831
O		2.34999288		2.34999288		6.15820785		 0.00000745		 0.00000745		 0.00054831
