# total energy = -41273.2497902 eV

CRYSTAL
PRIMVEC
		8.12000023		0.32479968		0.00000000
		0.32479968		8.12000023		0.00000000
		0.00000000		0.00000000		8.12000023
PRIMECORD
   56 1
Si		1.05559979		1.05559979		1.01499983		-0.00000000		-0.00000000		-0.00019363
Si		7.38920013		7.38920013		7.10499959		0.00000000		0.00000000		 0.00019363
Si		5.11559990		1.21799963		5.07499994		 0.00000001		0.00000000		-0.00019366
Si		3.32920001		7.22680028		3.04500029		-0.00000001		-0.00000000		 0.00019366
Si		1.21799963		5.11559990		5.07499994		0.00000000		 0.00000001		-0.00019366
Si		7.22680028		3.32920001		3.04500029		-0.00000000		-0.00000001		 0.00019366
Si		5.27799974		5.27799974		1.01499983		 0.00000001		 0.00000001		-0.00019364
Si		3.16680017		3.16680017		7.10499959		-0.00000001		-0.00000001		 0.00019364
Mg		4.22239996		4.22239996		4.06000011		0.00000000		0.00000000		0.00000000
Mg		2.27360023		6.17119969		0.00000000		 0.00000001		-0.00000001		0.00000000
Mg		6.17119969		2.27360023		0.00000000		-0.00000001		 0.00000001		0.00000000
Mg		6.08999976		0.24359976		2.02999965		-0.00000000		-0.00000002		-0.00000000
Mg		2.02999965		0.08119992		6.08999976		0.00000000		 0.00000002		0.00000000
Mg		0.08119992		2.02999965		6.08999976		 0.00000002		0.00000000		0.00000000
Mg		0.24359976		6.08999976		2.02999965		-0.00000002		-0.00000000		-0.00000000
Mg		4.06000011		0.16239984		0.00000000		0.00000000		0.00000000		0.00000000
Mg		2.11119957		2.11119957		4.06000011		-0.00000001		-0.00000001		 0.00000003
Mg		6.33359953		6.33359953		4.06000011		 0.00000001		 0.00000001		-0.00000003
Mg		6.25239961		4.30359988		6.08999976		 0.00000002		 0.00000001		 0.00000004
Mg		2.19240031		4.14120004		2.02999965		-0.00000002		-0.00000001		-0.00000004
Mg		0.16239984		4.06000011		0.00000000		0.00000000		0.00000000		0.00000000
Mg		4.14120004		2.19240031		2.02999965		-0.00000001		-0.00000002		-0.00000004
Mg		4.30359988		6.25239961		6.08999976		 0.00000001		 0.00000002		 0.00000004
Mg		0.00000000		0.00000000		4.06000011		0.00000000		0.00000000		0.00000000
O		2.04026422		2.04026422		1.96179237		 0.00042172		 0.00042172		-0.00007652
O		6.40453569		6.40453569		6.15820786		-0.00042172		-0.00042172		 0.00007652
O		4.13093627		0.23333600		6.02179167		-0.00042171		-0.00042168		-0.00007645
O		4.31386364		8.21146391		2.09820775		 0.00042171		 0.00042168		 0.00007645
O		0.30907980		6.02452055		4.12820821		 0.00028084		-0.00028082		-0.00013848
O		8.13572093		2.42028018		3.99179202		-0.00028084		 0.00028082		 0.00013848
O		6.18692120		4.36907910		0.06820810		-0.00028084		 0.00028082		-0.00013848
O		2.25788034		4.07572000		8.05179213		 0.00028084		-0.00028082		 0.00013848
O		8.21146391		4.31386364		2.09820775		 0.00042168		 0.00042171		 0.00007645
O		0.23333600		4.13093627		6.02179167		-0.00042168		-0.00042171		-0.00007645
O		4.07572000		2.25788034		8.05179213		-0.00028082		 0.00028084		 0.00013848
O		4.36907910		6.18692120		0.06820810		 0.00028082		-0.00028084		-0.00013848
O		2.42028018		8.13572093		3.99179202		 0.00028082		-0.00028084		 0.00013848
O		6.02452055		0.30907980		4.12820821		-0.00028082		 0.00028084		-0.00013848
O		2.20266407		6.10026353		6.02179167		 0.00042171		 0.00042169		-0.00007650
O		6.24213585		2.34453557		2.09820775		-0.00042171		-0.00042169		 0.00007650
O		4.29333612		4.29333612		1.96179237		-0.00042166		-0.00042166		-0.00007647
O		4.15146380		4.15146380		6.15820786		 0.00042166		 0.00042166		 0.00007647
O		0.14667995		1.96451962		0.06820810		 0.00028085		-0.00028085		-0.00013849
O		8.29811996		6.48027867		8.05179213		-0.00028085		 0.00028085		 0.00013849
O		8.37386375		8.37386375		6.15820786		 0.00042170		 0.00042170		 0.00007644
O		0.07093616		0.07093616		1.96179237		-0.00042170		-0.00042170		-0.00007644
O		4.23811984		6.31787883		3.99179202		-0.00028083		 0.00028084		 0.00013845
O		4.20667925		2.12692027		4.12820821		 0.00028083		-0.00028084		-0.00013845
O		6.10026353		2.20266407		6.02179167		 0.00042169		 0.00042171		-0.00007650
O		2.34453557		6.24213585		2.09820775		-0.00042169		-0.00042171		 0.00007650
O		2.12692027		4.20667925		4.12820821		-0.00028084		 0.00028083		-0.00013845
O		6.31787883		4.23811984		3.99179202		 0.00028084		-0.00028083		 0.00013845
O		6.48027867		8.29811996		8.05179213		 0.00028085		-0.00028085		 0.00013849
O		1.96451962		0.14667995		0.06820810		-0.00028085		 0.00028085		-0.00013849
O		6.26266418		6.26266418		1.96179237		 0.00042169		 0.00042169		-0.00007651
O		2.18213573		2.18213573		6.15820786		-0.00042169		-0.00042169		 0.00007651
