# total energy = -41273.2497902 eV

CRYSTAL
PRIMVEC
		8.12000023		-0.32479968		0.00000000
		-0.32479968		8.12000023		0.00000000
		0.00000000		0.00000000		8.12000023
PRIMECORD
   56 1
Si		0.97439986		0.97439986		1.01499983		-0.00000002		-0.00000002		 0.00019367
Si		6.82079987		6.82079987		7.10499959		 0.00000002		 0.00000002		-0.00019367
Si		5.03439998		0.81200002		5.07499994		-0.00000004		-0.00000005		 0.00019359
Si		2.76079975		6.98319971		3.04500029		 0.00000004		 0.00000005		-0.00019359
Si		0.81200002		5.03439998		5.07499994		-0.00000005		-0.00000004		 0.00019359
Si		6.98319971		2.76079975		3.04500029		 0.00000005		 0.00000004		-0.00019359
Si		4.87200014		4.87200014		1.01499983		-0.00000002		-0.00000002		 0.00019368
Si		2.92319959		2.92319959		7.10499959		 0.00000002		 0.00000002		-0.00019368
Mg		3.89760027		3.89760027		4.06000011		0.00000000		0.00000000		0.00000000
Mg		1.78639989		6.00879984		0.00000000		-0.00000000		0.00000000		0.00000000
Mg		6.00879984		1.78639989		0.00000000		0.00000000		-0.00000000		0.00000000
Mg		6.08999976		-0.24359976		2.02999965		 0.00000009		-0.00000006		-0.00000004
Mg		2.02999965		-0.08119992		6.08999976		-0.00000009		 0.00000006		 0.00000004
Mg		-0.08119992		2.02999965		6.08999976		 0.00000006		-0.00000009		 0.00000004
Mg		-0.24359976		6.08999976		2.02999965		-0.00000006		 0.00000009		-0.00000004
Mg		4.06000011		-0.16239984		0.00000000		0.00000000		0.00000000		0.00000000
Mg		1.94879973		1.94879973		4.06000011		 0.00000001		 0.00000001		-0.00000001
Mg		5.84640000		5.84640000		4.06000011		-0.00000001		-0.00000001		 0.00000001
Mg		5.92759992		3.81640035		6.08999976		-0.00000008		 0.00000006		 0.00000005
Mg		1.86759981		3.97880019		2.02999965		 0.00000008		-0.00000006		-0.00000005
Mg		-0.16239984		4.06000011		0.00000000		0.00000000		0.00000000		0.00000000
Mg		3.97880019		1.86759981		2.02999965		-0.00000006		 0.00000008		-0.00000005
Mg		3.81640035		5.92759992		6.08999976		 0.00000006		-0.00000008		 0.00000005
Mg		0.00000000		0.00000000		4.06000011		0.00000000		0.00000000		0.00000000
O		1.88331970		1.88331970		1.96179237		-0.00028093		-0.00028093		 0.00013839
O		5.91187922		5.91187922		6.15820786		 0.00028093		 0.00028093		-0.00013839
O		4.12547933		-0.09691981		6.02179167		 0.00028085		 0.00028086		 0.00013853
O		3.66971958		7.89212117		2.09820775		-0.00028085		-0.00028086		-0.00013853
O		-0.17266360		6.01906360		4.12820821		-0.00042163		 0.00042165		 0.00007652
O		7.96786415		1.77613613		3.99179202		 0.00042163		-0.00042165		-0.00007652
O		5.85666376		3.88733570		0.06820810		 0.00042163		-0.00042161		 0.00007652
O		1.93853597		3.90786403		8.05179213		-0.00042163		 0.00042161		-0.00007652
O		7.89212117		3.66971958		2.09820775		-0.00028086		-0.00028085		-0.00013853
O		-0.09691981		4.12547933		6.02179167		 0.00028086		 0.00028085		 0.00013853
O		3.90786403		1.93853597		8.05179213		 0.00042161		-0.00042163		-0.00007652
O		3.88733570		5.85666376		0.06820810		-0.00042161		 0.00042163		 0.00007652
O		1.77613613		7.96786415		3.99179202		-0.00042165		 0.00042163		-0.00007652
O		6.01906360		-0.17266360		4.12820821		 0.00042165		-0.00042163		 0.00007652
O		1.72091986		5.94332062		6.02179167		-0.00028081		-0.00028083		 0.00013848
O		6.07427906		1.85187992		2.09820775		 0.00028081		 0.00028083		-0.00013848
O		3.96307868		3.96307868		1.96179237		 0.00028087		 0.00028087		 0.00013846
O		3.83212024		3.83212024		6.15820786		-0.00028087		-0.00028087		-0.00013846
O		-0.01026376		1.95906430		0.06820810		-0.00042163		 0.00042162		 0.00007652
O		7.80546349		5.83613624		8.05179213		 0.00042163		-0.00042162		-0.00007652
O		7.72971970		7.72971970		6.15820786		-0.00028089		-0.00028089		-0.00013846
O		0.06548003		0.06548003		1.96179237		 0.00028089		 0.00028089		 0.00013846
O		3.74546419		5.99853608		3.99179202		 0.00042164		-0.00042165		-0.00007652
O		4.04973554		1.79666365		4.12820821		-0.00042164		 0.00042165		 0.00007652
O		5.94332062		1.72091986		6.02179167		-0.00028083		-0.00028081		 0.00013848
O		1.85187992		6.07427906		2.09820775		 0.00028083		 0.00028081		-0.00013848
O		1.79666365		4.04973554		4.12820821		 0.00042165		-0.00042164		 0.00007652
O		5.99853608		3.74546419		3.99179202		-0.00042165		 0.00042164		-0.00007652
O		5.83613624		7.80546349		8.05179213		-0.00042162		 0.00042163		-0.00007652
O		1.95906430		-0.01026376		0.06820810		 0.00042162		-0.00042163		 0.00007652
O		5.78092078		5.78092078		1.96179237		-0.00028091		-0.00028091		 0.00013838
O		2.01427976		2.01427976		6.15820786		 0.00028091		 0.00028091		-0.00013838
