# total energy = -41269.0772366 eV

CRYSTAL
PRIMVEC
		8.11999732		-0.64959816		0.00000000
		-0.64959816		8.11999732		0.00000000
		0.00000000		0.00000000		8.11999732
PRIMECORD
   56 1
Si		0.93380030		0.93380030		1.01499987		0.00000000		0.00000000		 0.00035505
Si		6.53659968		6.53659968		7.10499990		-0.00000000		-0.00000000		-0.00035505
Si		4.99379978		0.60899960		5.07499934		0.00000000		 0.00000001		 0.00035510
Si		2.47660020		6.86139957		3.04499961		-0.00000000		-0.00000001		-0.00035510
Si		0.60899960		4.99379978		5.07499934		 0.00000001		0.00000000		 0.00035510
Si		6.86139957		2.47660020		3.04499961		-0.00000001		-0.00000000		-0.00035510
Si		4.66899988		4.66899988		1.01499987		 0.00000001		 0.00000001		 0.00035507
Si		2.80140009		2.80140009		7.10499990		-0.00000001		-0.00000001		-0.00035507
Mg		3.73519958		3.73519958		4.05999947		0.00000000		0.00000000		0.00000000
Mg		1.54279990		5.92760008		0.00000000		-0.00000002		 0.00000002		0.00000000
Mg		5.92760008		1.54279990		0.00000000		 0.00000002		-0.00000002		0.00000000
Mg		6.09000003		-0.48719984		2.02999974		 0.00000001		0.00000000		-0.00000003
Mg		2.02999974		-0.16239995		6.09000003		-0.00000001		-0.00000000		 0.00000003
Mg		-0.16239995		2.02999974		6.09000003		-0.00000000		-0.00000001		 0.00000003
Mg		-0.48719984		6.09000003		2.02999974		0.00000000		 0.00000001		-0.00000003
Mg		4.05999947		-0.32479989		0.00000000		0.00000000		0.00000000		0.00000000
Mg		1.86759979		1.86759979		4.05999947		-0.00000001		-0.00000001		-0.00000000
Mg		5.60279937		5.60279937		4.05999947		 0.00000001		 0.00000001		0.00000000
Mg		5.76519932		3.57279964		6.09000003		-0.00000000		-0.00000000		 0.00000001
Mg		1.70519984		3.89759953		2.02999974		0.00000000		0.00000000		-0.00000001
Mg		-0.32479989		4.05999947		0.00000000		0.00000000		0.00000000		0.00000000
Mg		3.89759953		1.70519984		2.02999974		0.00000000		0.00000000		-0.00000001
Mg		3.57279964		5.76519932		6.09000003		-0.00000000		-0.00000000		 0.00000001
Mg		0.00000000		0.00000000		4.05999947		0.00000000		0.00000000		0.00000000
O		1.80484915		1.80484915		1.96179213		-0.00011261		-0.00011261		-0.00027049
O		5.66555082		5.66555082		6.15820763		 0.00011261		 0.00011261		 0.00027049
O		4.12275093		-0.26204926		6.02179161		 0.00011261		 0.00011260		-0.00027053
O		3.34764905		7.73244842		2.09820815		-0.00011261		-0.00011260		 0.00027053
O		-0.41353527		6.01633546		4.12820789		-0.00018381		 0.00018381		 0.00025066
O		7.88393525		1.45406452		3.99179187		 0.00018381		-0.00018381		-0.00025066
O		5.69153556		3.64646420		0.06820760		 0.00018382		-0.00018381		 0.00025066
O		1.77886523		3.82393496		8.05179135		-0.00018382		 0.00018381		-0.00025066
O		7.73244842		3.34764905		2.09820815		-0.00011260		-0.00011261		 0.00027053
O		-0.26204926		4.12275093		6.02179161		 0.00011260		 0.00011261		-0.00027053
O		3.82393496		1.77886523		8.05179135		 0.00018381		-0.00018382		-0.00025066
O		3.64646420		5.69153556		0.06820760		-0.00018381		 0.00018382		 0.00025066
O		1.45406452		7.88393525		3.99179187		-0.00018381		 0.00018381		-0.00025066
O		6.01633546		-0.41353527		4.12820789		 0.00018381		-0.00018381		 0.00025066
O		1.48004926		5.86484863		6.02179161		-0.00011262		-0.00011262		-0.00027050
O		5.99035072		1.60555053		2.09820815		 0.00011262		 0.00011262		 0.00027050
O		3.79795103		3.79795103		1.96179213		 0.00011258		 0.00011258		-0.00027051
O		3.67244895		3.67244895		6.15820763		-0.00011258		-0.00011258		 0.00027051
O		-0.08873538		1.95633517		0.06820760		-0.00018382		 0.00018380		 0.00025065
O		7.55913536		5.51406400		8.05179135		 0.00018382		-0.00018380		-0.00025065
O		7.40764853		7.40764853		6.15820763		-0.00011258		-0.00011258		 0.00027053
O		0.06275064		0.06275064		1.96179213		 0.00011258		 0.00011258		-0.00027053
O		3.49913507		5.83886389		3.99179187		 0.00018381		-0.00018381		-0.00025065
O		3.97126410		1.63153528		4.12820789		-0.00018381		 0.00018381		 0.00025065
O		5.86484863		1.48004926		6.02179161		-0.00011262		-0.00011262		-0.00027050
O		1.60555053		5.99035072		2.09820815		 0.00011262		 0.00011262		 0.00027050
O		1.63153528		3.97126410		4.12820789		 0.00018381		-0.00018381		 0.00025065
O		5.83886389		3.49913507		3.99179187		-0.00018381		 0.00018381		-0.00025065
O		5.51406400		7.55913536		8.05179135		-0.00018380		 0.00018382		-0.00025065
O		1.95633517		-0.08873538		0.06820760		 0.00018380		-0.00018382		 0.00025065
O		5.54004874		5.54004874		1.96179213		-0.00011260		-0.00011260		-0.00027048
O		1.93035124		1.93035124		6.15820763		 0.00011260		 0.00011260		 0.00027048
