# total energy = -41261.9443128 eV

CRYSTAL
PRIMVEC
		8.12000106		-0.97439816		0.00000000
		-0.97439816		8.12000106		0.00000000
		0.00000000		0.00000000		8.12000106
PRIMECORD
   56 1
Si		0.89320036		0.89320036		1.01499993		-0.00000004		-0.00000004		 0.00000334
Si		6.25240008		6.25240008		7.10499949		 0.00000004		 0.00000004		-0.00000334
Si		4.95320007		0.40599964		5.07499964		-0.00000001		-0.00000002		 0.00000324
Si		2.19239955		6.73959998		3.04499978		 0.00000001		 0.00000002		-0.00000324
Si		0.40599964		4.95320007		5.07499964		-0.00000002		-0.00000001		 0.00000324
Si		6.73959998		2.19239955		3.04499978		 0.00000002		 0.00000001		-0.00000324
Si		4.46600017		4.46600017		1.01499993		-0.00000003		-0.00000003		 0.00000332
Si		2.67960027		2.67960027		7.10499949		 0.00000003		 0.00000003		-0.00000332
Mg		3.57279981		3.57279981		4.05999971		0.00000000		0.00000000		0.00000000
Mg		1.29920001		5.84639961		0.00000000		 0.00000001		-0.00000001		0.00000000
Mg		5.84639961		1.29920001		0.00000000		-0.00000001		 0.00000001		0.00000000
Mg		6.08999956		-0.73079985		2.02999985		-0.00000001		-0.00000001		0.00000000
Mg		2.02999985		-0.24359995		6.08999956		 0.00000001		 0.00000001		-0.00000000
Mg		-0.24359995		2.02999985		6.08999956		 0.00000001		 0.00000001		-0.00000000
Mg		-0.73079985		6.08999956		2.02999985		-0.00000001		-0.00000001		0.00000000
Mg		4.05999971		-0.48719990		0.00000000		0.00000000		0.00000000		0.00000000
Mg		1.78639991		1.78639991		4.05999971		-0.00000000		-0.00000000		-0.00000000
Mg		5.35919972		5.35919972		4.05999971		0.00000000		0.00000000		0.00000000
Mg		5.60279967		3.32919986		6.08999956		-0.00000000		0.00000000		-0.00000001
Mg		1.54279996		3.81639976		2.02999985		0.00000000		-0.00000000		 0.00000001
Mg		-0.48719990		4.05999971		0.00000000		0.00000000		0.00000000		0.00000000
Mg		3.81639976		1.54279996		2.02999985		-0.00000000		0.00000000		 0.00000001
Mg		3.32919986		5.60279967		6.08999956		0.00000000		-0.00000000		-0.00000001
Mg		0.00000000		0.00000000		4.05999971		0.00000000		0.00000000		0.00000000
O		1.72637724		1.72637724		1.96179157		 0.00039664		 0.00039664		-0.00042531
O		5.41922320		5.41922320		6.15820785		-0.00039664		-0.00039664		 0.00042531
O		4.12002319		-0.42717723		6.02179210		-0.00039661		-0.00039662		-0.00042531
O		3.02557725		7.57277685		2.09820814		 0.00039661		 0.00039662		 0.00042531
O		-0.65440677		6.01360649		4.12820799		 0.00000748		-0.00000745		 0.00054821
O		7.80000639		1.13199313		3.99179225		-0.00000748		 0.00000745		-0.00054821
O		5.52640659		3.40559294		0.06820828		-0.00000745		 0.00000746		 0.00054823
O		1.61919303		3.74000668		8.05179196		 0.00000745		-0.00000746		-0.00054823
O		7.57277685		3.02557725		2.09820814		 0.00039662		 0.00039661		 0.00042531
O		-0.42717723		4.12002319		6.02179210		-0.00039662		-0.00039661		-0.00042531
O		3.74000668		1.61919303		8.05179196		-0.00000746		 0.00000745		-0.00054823
O		3.40559294		5.52640659		0.06820828		 0.00000746		-0.00000745		 0.00054823
O		1.13199313		7.80000639		3.99179225		 0.00000745		-0.00000748		-0.00054821
O		6.01360649		-0.65440677		4.12820799		-0.00000745		 0.00000748		 0.00054821
O		1.23917734		5.78637695		6.02179210		 0.00039665		 0.00039664		-0.00042533
O		5.90642310		1.35922267		2.09820814		-0.00039665		-0.00039664		 0.00042533
O		3.63282248		3.63282248		1.96179157		-0.00039660		-0.00039660		-0.00042537
O		3.51277714		3.51277714		6.15820785		 0.00039660		 0.00039660		 0.00042537
O		-0.16720687		1.95360678		0.06820828		 0.00000747		-0.00000744		 0.00054822
O		7.31280649		5.19199284		8.05179196		-0.00000747		 0.00000744		-0.00054822
O		7.08557696		7.08557696		6.15820785		 0.00039660		 0.00039660		 0.00042539
O		0.06002267		0.06002267		1.96179157		-0.00039660		-0.00039660		-0.00042539
O		3.25280678		5.67919274		3.99179225		-0.00000749		 0.00000746		-0.00054822
O		3.89279284		1.46640688		4.12820799		 0.00000749		-0.00000746		 0.00054822
O		5.78637695		1.23917734		6.02179210		 0.00039664		 0.00039665		-0.00042533
O		1.35922267		5.90642310		2.09820814		-0.00039664		-0.00039665		 0.00042533
O		1.46640688		3.89279284		4.12820799		-0.00000746		 0.00000749		 0.00054822
O		5.67919274		3.25280678		3.99179225		 0.00000746		-0.00000749		-0.00054822
O		5.19199284		7.31280649		8.05179196		 0.00000744		-0.00000747		-0.00054822
O		1.95360678		-0.16720687		0.06820828		-0.00000744		 0.00000747		 0.00054822
O		5.29917705		5.29917705		1.96179157		 0.00039663		 0.00039663		-0.00042532
O		1.84642257		1.84642257		6.15820785		-0.00039663		-0.00039663		 0.00042532
