# total energy = -12339.8483414 eV

CRYSTAL
PRIMVEC
		2.46199993		0.00000000		-0.09847990
		0.00000000		8.05299855		0.00000000
		-0.24431974		0.00000000		6.10799838
PRIMECORD
   20 1
O		-0.06108006		0.58786891		1.52699997		-0.00001078		-0.00049581		 0.00001566
O		-0.18323993		7.46513038		4.58099965		 0.00001078		 0.00049581		-0.00001566
O		1.16991991		4.61436868		1.47776002		-0.00001080		-0.00049579		 0.00001490
O		1.04776004		3.43863086		4.53175970		 0.00001080		 0.00049579		-0.00001490
O		-0.10774491		2.92323884		2.69362776		 0.00015065		-0.00016057		-0.00011456
O		-0.13657507		5.12976070		3.41437185		-0.00015065		 0.00016057		 0.00011456
O		-0.22990503		5.12976070		5.74762769		 0.00015013		 0.00016587		-0.00012562
O		-0.01441496		2.92323884		0.36037192		-0.00015013		-0.00016587		 0.00012562
O		1.12325480		6.94973959		2.64438781		 0.00015073		-0.00015969		-0.00011432
O		1.09442489		1.10326093		3.36513166		-0.00015073		 0.00015969		 0.00011432
O		1.00109493		1.10326093		5.69838750		 0.00015014		 0.00016563		-0.00012567
O		1.21658501		6.94973959		0.31113197		-0.00015014		-0.00016563		 0.00012567
Si		0.00000000		0.00000000		0.00000000		0.00000000		0.00000000		0.00000000
Si		-0.12215987		0.00000000		3.05399968		0.00000000		0.00000000		0.00000000
Si		1.23099996		4.02649977		-0.04923995		0.00000000		0.00000000		0.00000000
Si		1.10883985		4.02649977		3.00475973		0.00000000		0.00000000		0.00000000
Mg		-0.18323993		2.03740885		4.58099965		 0.00001397		 0.00073886		 0.00000221
Mg		-0.06108006		6.01559069		1.52699997		-0.00001397		-0.00073886		-0.00000221
Mg		1.04776004		6.06390961		4.53175970		 0.00001376		 0.00073807		 0.00000224
Mg		1.16991991		1.98909092		1.47776002		-0.00001376		-0.00073807		-0.00000224
