# total energy = -12339.8483414 eV

CRYSTAL
PRIMVEC
		2.46199993		0.00000000		0.09847990
		0.00000000		8.05299855		0.00000000
		0.24431974		0.00000000		6.10799838
PRIMECORD
   20 1
O		0.06108006		0.58786891		1.52699997		 0.00001082		-0.00049553		 0.00001493
O		0.18323993		7.46513038		4.58099965		-0.00001082		 0.00049553		-0.00001493
O		1.29208002		4.61436868		1.57623991		 0.00001099		-0.00049570		 0.00001431
O		1.41423989		3.43863086		4.63023960		-0.00001099		 0.00049570		-0.00001431
O		0.10774491		2.92323884		2.69362776		-0.00015043		-0.00016025		-0.00011472
O		0.13657507		5.12976070		3.41437185		 0.00015043		 0.00016025		 0.00011472
O		0.22990503		5.12976070		5.74762769		-0.00015010		 0.00016554		-0.00012547
O		0.01441496		2.92323884		0.36037192		 0.00015010		-0.00016554		 0.00012547
O		1.33874488		6.94973959		2.74286771		-0.00015043		-0.00016025		-0.00011464
O		1.36757479		1.10326093		3.46361180		 0.00015043		 0.00016025		 0.00011464
O		1.46090499		1.10326093		5.79686764		-0.00015017		 0.00016580		-0.00012582
O		1.24541492		6.94973959		0.40961187		 0.00015017		-0.00016580		 0.00012582
Si		0.00000000		0.00000000		0.00000000		0.00000000		0.00000000		0.00000000
Si		0.12215987		0.00000000		3.05399968		0.00000000		0.00000000		0.00000000
Si		1.23099996		4.02649977		0.04923995		0.00000000		0.00000000		0.00000000
Si		1.35315983		4.02649977		3.10323988		0.00000000		0.00000000		0.00000000
Mg		0.18323993		2.03740885		4.58099965		-0.00001393		 0.00073850		 0.00000253
Mg		0.06108006		6.01559069		1.52699997		 0.00001393		-0.00073850		-0.00000253
Mg		1.41423989		6.06390961		4.63023960		-0.00001382		 0.00073851		 0.00000214
Mg		1.29208002		1.98909092		1.57623991		 0.00001382		-0.00073851		-0.00000214
