# total energy = -12337.3907694 eV

CRYSTAL
PRIMVEC
		2.46199927		0.00000000		-0.19695945
		0.00000000		8.05299987		0.00000000
		-0.48864072		0.00000000		6.10800032
PRIMECORD
   20 1
O		-0.12216006		0.58786906		1.52699996		-0.00003074		-0.00063248		-0.00003217
O		-0.36647992		7.46513081		4.58099987		 0.00003074		 0.00063248		 0.00003217
O		1.10884007		4.61436899		1.42851999		-0.00003058		-0.00063256		-0.00003095
O		0.86451996		3.43863088		4.48251990		 0.00003058		 0.00063256		 0.00003095
O		-0.21549011		2.92323904		2.69362797		 0.00011044		-0.00019706		 0.00035096
O		-0.27315011		5.12976083		3.41437186		-0.00011044		 0.00019706		-0.00035096
O		-0.45980997		5.12976083		5.74762789		 0.00011836		 0.00017556		 0.00037287
O		-0.02883000		2.92323904		0.36037194		-0.00011836		-0.00017556		-0.00037287
O		1.01551002		6.94973997		2.59514800		 0.00011022		-0.00019740		 0.00035063
O		0.95785001		1.10326089		3.31589189		-0.00011022		 0.00019740		-0.00035063
O		0.77118991		1.10326089		5.64914792		 0.00011844		 0.00017524		 0.00037307
O		1.20216988		6.94973997		0.26189197		-0.00011844		-0.00017524		-0.00037307
Si		0.00000000		0.00000000		0.00000000		0.00000000		0.00000000		0.00000000
Si		-0.24432011		0.00000000		3.05399991		0.00000000		0.00000000		0.00000000
Si		1.23099988		4.02649994		-0.09847997		0.00000000		0.00000000		0.00000000
Si		0.98668001		4.02649994		2.95551994		0.00000000		0.00000000		0.00000000
Mg		-0.36647992		2.03740908		4.58099987		 0.00002963		 0.00031026		-0.00003978
Mg		-0.12216006		6.01559079		1.52699996		-0.00002963		-0.00031026		 0.00003978
Mg		0.86451996		6.06391001		4.48251990		 0.00002972		 0.00031026		-0.00003981
Mg		1.10884007		1.98909085		1.42851999		-0.00002972		-0.00031026		 0.00003981
