# total energy = -12325.366235 eV	

CRYSTAL	
PRIMVEC	
		2.46200010		0.00000000		0.00000000	
		0.00000000		8.05300044		1.28848037	
		0.00000000		0.97728109		6.10800066	
PRIMCOORD
   20 1	
O		0.00000000		0.83218902		1.62105916		0.00000000		-0.00028333		-0.00041764	
O		0.00000000		8.19809127		5.77542113		0.00000000		 0.00028333		 0.00041764	
O		1.23100005		4.85868924		2.26529909		0.00000000		-0.00028762		-0.00042402	
O		1.23100005		4.17159105		5.13118120		0.00000000		 0.00028762		 0.00042402	
O		0.00000000		3.35422007		3.16134624		0.00000000		-0.00014692		 0.00056280	
O		0.00000000		5.67606121		4.23513405		0.00000000		 0.00014692		-0.00056280	
O		0.00000000		6.04938118		6.56838927		0.00000000		-0.00043380		 0.00045551	
O		0.00000000		2.98089912		0.82809004		0.00000000		 0.00043380		-0.00045551	
O		1.23100005		7.38072029		3.80558618		0.00000000		-0.00015157		 0.00057003	
O		1.23100005		1.64956099		3.59089411		0.00000000		 0.00015157		-0.00057003	
O		1.23100005		2.02288096		5.92414933		0.00000000		-0.00041416		 0.00044384	
O		1.23100005		7.00739934		1.47232998		0.00000000		 0.00041416		-0.00044384	
Si		0.00000000		0.00000000		0.00000000		0.00000000		0.00000000		0.00000000	
Si		0.00000000		0.48864005		3.05400009		0.00000000		0.00000000		0.00000000	
Si		1.23100005		4.02650022		0.64423994		0.00000000		0.00000000		0.00000000	
Si		1.23100005		4.51514027		3.69824027		0.00000000		0.00000000		0.00000000	
Mg		0.00000000		2.77036906		4.90698531		0.00000000		-0.00040910		-0.00008817	
Mg		0.00000000		6.25991124		2.48949498		0.00000000		 0.00040910		 0.00008817	
Mg		1.23100005		6.79686928		5.55122525		0.00000000		-0.00039081		-0.00010220	
Mg		1.23100005		2.23341102		1.84525504		0.00000000		 0.00039081		 0.00010220	
