# total energy = -18531.3230956 eV

CRYSTAL
PRIMVEC
		7.54937375		-0.00009836		-0.05013754
		-0.00008431		6.82064406		-0.00040048
		-0.49626746		-0.00025996		4.75210535
PRIMECORD
   30 1
Mg		0.06219837		1.70552847		2.48628570		-0.00064636		-0.00026965		-0.00006343
Mg		6.99082502		5.11475796		2.21528866		 0.00064635		 0.00026965		 0.00006344
Mg		4.98896024		1.70645661		4.35269763		 0.00003840		-0.00042572		-0.00040663
Mg		2.06406385		5.11383053		0.34887673		-0.00003839		 0.00042572		 0.00040665
Mg		2.84211255		1.70528186		0.29869563		 0.00049465		-0.00018053		 0.00002768
Mg		4.21091084		5.11500457		4.40287943		-0.00049465		 0.00018053		-0.00002768
Si		0.00000000		0.00000000		0.00000000		0.00000000		0.00000000		-0.00000000
Si		-0.00004145		3.41032062		-0.00019813		-0.00000000		-0.00000000		-0.00000000
Si		2.20573963		3.42588040		2.62284444		-0.00001131		-0.00025807		 0.00041214
Si		4.84728376		3.39440603		2.07872992		 0.00001131		 0.00025807		-0.00041214
Si		4.84743693		0.01561880		2.07898215		 0.00001527		-0.00025603		-0.00041057
Si		2.20558716		6.80466834		2.62259220		-0.00001527		 0.00025603		 0.00041058
O		5.94155235		3.78108967		0.70663222		 0.00009870		 0.00030890		-0.00024651
O		1.11147174		3.03919747		3.99494284		-0.00009870		-0.00030890		 0.00024651
O		1.11152022		0.37070230		3.99502013		-0.00011957		 0.00037919		 0.00022523
O		5.94150387		6.44958414		0.70655423		 0.00011956		-0.00037920		-0.00022522
O		6.23524266		3.01975372		3.14880026		 0.00002867		-0.00017093		-0.00022210
O		0.81778073		3.80053272		1.55277410		-0.00002866		 0.00017093		 0.00022210
O		0.81761702		6.43044461		1.55256402		-0.00000892		-0.00030487		 0.00020605
O		6.23540636		0.38984253		3.14901034		 0.00000892		 0.00030486		-0.00020605
O		2.03291900		1.70527624		2.10422446		 0.00004053		-0.00010936		 0.00020856
O		5.02010439		5.11501090		2.59734989		-0.00004053		 0.00010936		-0.00020857
O		3.33642678		3.74148059		1.21968058		-0.00004559		-0.00015964		-0.00008372
O		3.71659731		3.07880584		3.48189449		 0.00004558		 0.00015963		 0.00008372
O		3.71669778		0.33174032		3.48192329		 0.00002958		-0.00024886		 0.00008701
O		3.33632631		6.48854612		1.21965107		-0.00002957		 0.00024886		-0.00008702
O		4.73262717		1.70519685		1.47501314		 0.00013544		-0.00011081		-0.00018340
O		2.32039692		5.11508959		3.22656192		-0.00013544		 0.00011082		 0.00018340
O		7.34472815		1.70532964		0.43792777		 0.00065976		-0.00010505		 0.00005406
O		-0.29170406		5.11495680		4.26364659		-0.00065977		 0.00010505		-0.00005406
