# total energy = -49447.7601556 eV	

CRYSTAL	
PRIMVEC	
		5.19837914		-0.00000509		0.00000000	
		-0.00001527		14.23808458		0.00000000	
		0.00000000		0.00000000		8.88199003	
PRIMCOORD
   70 1	
Si		2.59918906		0.00000000		0.00000000		 0.00000020		-0.00000048		 0.00000010	
Si		-0.00000763		7.11904280		4.44099451		-0.00000013		-0.00000066		-0.00000011	
Si		2.52600807		5.36180180		0.00000000		-0.00014523		-0.00018802		 0.00000005	
Si		2.67235376		8.87627820		0.00000000		 0.00014703		 0.00018817		 0.00000024	
Si		0.07316776		12.48083697		4.44099451		 0.00012423		-0.00015531		-0.00000007	
Si		5.12519561		1.75724252		4.44099451		-0.00012699		 0.00015596		-0.00000021	
Mg		0.88390711		2.48036379		0.00000000		 0.00056671		 0.00006223		 0.00000005	
Mg		4.31445574		11.75771621		0.00000000		-0.00056683		-0.00006167		 0.00000003	
Mg		1.71526821		9.59940150		4.44099451		-0.00056597		 0.00007327		-0.00000002	
Mg		3.48309414		4.63867799		4.44099451		 0.00056611		-0.00007271		-0.00000005	
Mg		0.82187853		4.59936645		2.87326495		-0.00015895		 0.00003313		 0.00022787	
Mg		4.37648433		9.63871304		6.00872356		 0.00015872		-0.00003269		-0.00022815	
Mg		4.37648433		9.63871304		2.87326495		 0.00015875		-0.00003271		 0.00022810	
Mg		0.82187853		4.59936645		6.00872356		-0.00015895		 0.00003315		-0.00022794	
Mg		1.77729120		11.71840467		1.56772803		 0.00016185		 0.00004408		-0.00022451	
Mg		3.42107115		2.51967482		7.31426098		-0.00016165		-0.00004360		 0.00022478	
Mg		3.42107115		2.51967533		1.56772803		-0.00016166		-0.00004363		-0.00022475	
Mg		1.77729120		11.71840416		7.31426047		 0.00016186		 0.00004412		 0.00022455	
Mg		2.59918143		7.11903975		2.85919785		 0.00000007		-0.00000031		-0.00034632	
Mg		2.59918143		7.11903975		6.02279066		 0.00000003		-0.00000030		 0.00034631	
Mg		0.00000000		0.00000000		1.58179513		-0.00000007		-0.00000016		 0.00035013	
Mg		0.00000000		0.00000000		7.30019439		-0.00000006		-0.00000025		-0.00035012	
Mg		2.59918906		0.00000000		3.03206389		 0.00000025		-0.00000047		 0.00016551	
Mg		2.59918906		0.00000000		5.84992512		 0.00000024		-0.00000053		-0.00016555	
Mg		-0.00000763		7.11904280		1.40892807		-0.00000018		-0.00000044		-0.00015929	
Mg		-0.00000763		7.11904280		7.47306043		-0.00000018		-0.00000046		 0.00015932	
O		1.73077510		5.88817451		1.38257567		-0.00030713		 0.00020651		-0.00027443	
O		3.46758775		8.34990499		7.49941284		 0.00030680		-0.00020592		 0.00027450	
O		3.46758775		8.34990550		1.38257567		 0.00030670		-0.00020586		-0.00027473	
O		1.73077510		5.88817400		7.49941284		-0.00030709		 0.00020641		 0.00027438	
O		0.86839259		13.00721884		3.05841935		 0.00030873		 0.00020263		 0.00027110	
O		4.32996976		1.23086066		5.82356967		-0.00030828		-0.00020215		-0.00027136	
O		4.32996976		1.23086066		3.05841935		-0.00030828		-0.00020217		 0.00027157	
O		0.86839259		13.00721884		5.82356916		 0.00030875		 0.00020264		-0.00027107	
O		2.55696842		3.69392812		0.00000000		-0.00027370		-0.00052474		-0.00000009	
O		2.64139393		10.54415188		0.00000000		 0.00027343		 0.00052411		-0.00000005	
O		0.04220334		10.81298161		4.44099400		 0.00027680		-0.00055101		 0.00000002	
O		5.15615901		3.42509839		4.44099451		-0.00027634		 0.00055000		 0.00000013	
O		4.11493040		5.88706756		0.00000000		 0.00006765		 0.00015005		 0.00000012	
O		1.08343245		8.35101193		0.00000000		-0.00006854		-0.00014922		-0.00000004	
O		3.68261133		13.00611138		4.44099451		-0.00005100		 0.00014712		-0.00000007	
O		1.51575050		1.23196760		4.44099451		 0.00005247		-0.00014613		-0.00000002	
O		1.85289576		1.03869968		1.28209310		 0.00019265		-0.00016389		-0.00017158	
O		3.34546659		13.19938032		7.59989591		-0.00019280		 0.00016411		 0.00017173	
O		3.34546659		13.19938032		1.28209259		-0.00019283		 0.00016409		-0.00017174	
O		1.85289576		1.03869917		7.59989642		 0.00019264		-0.00016376		 0.00017148	
O		0.74628262		8.15774350		3.15890191		-0.00019101		-0.00016464		 0.00016913	
O		4.45208024		6.08033599		5.72308659		 0.00019113		 0.00016506		-0.00016922	
O		4.45208024		6.08033599		3.15890191		 0.00019123		 0.00016505		 0.00016925	
O		0.74628262		8.15774350		5.72308659		-0.00019105		-0.00016454		-0.00016905	
O		5.10038376		3.59632769		1.40484434		-0.00030666		-0.00008772		 0.00018646	
O		0.09797807		10.64175435		7.47714264		 0.00030961		 0.00008019		-0.00018175	
O		0.09797807		10.64175435		1.40484535		 0.00030924		 0.00008105		 0.00018225	
O		5.10038275		3.59632921		7.47714570		-0.00030447		-0.00009325		-0.00019005	
O		2.69718037		10.71540662		3.03617053		 0.00026716		-0.00019784		-0.00025313	
O		2.50118351		3.52267694		5.84582103		-0.00027178		 0.00018600		 0.00024561	
O		2.50118402		3.52267796		3.03616747		-0.00027286		 0.00018317		-0.00024370	
O		2.69718087		10.71540713		5.84581798		 0.00026641		-0.00019985		 0.00025443	
O		1.02207770		13.11713460		0.00000000		 0.00008133		-0.00022038		 0.00000002	
O		4.17628464		1.12094540		0.00000000		-0.00008129		 0.00022063		-0.00000009	
O		1.57708998		5.99809028		4.44099451		-0.00008121		-0.00021793		 0.00000003	
O		3.62127236		8.23998922		4.44099451		 0.00008109		 0.00021841		 0.00000005	
H		4.78723401		4.38036092		0.90371709		-0.00020439		 0.00048452		 0.00029072	
H		0.41112935		9.85771653		7.97827345		 0.00020163		-0.00047772		-0.00029517	
H		0.41112935		9.85771704		0.90371557		 0.00020194		-0.00047847		 0.00029468	
H		4.78723503		4.38035940		7.97827090		-0.00020642		 0.00048960		-0.00028741	
H		3.01030365		11.49937472		3.53725757		 0.00024326		 0.00058257		-0.00022775	
H		2.18805767		2.73870122		5.34472890		-0.00023889		-0.00057176		 0.00023484	
H		2.18805716		2.73870071		3.53726062		-0.00023784		-0.00056911		-0.00023657	
H		3.01030365		11.49937421		5.34473145		 0.00024398		 0.00058440		 0.00022657	
