# total energy = -49448.0764498 eV	

CRYSTAL	
PRIMVEC	
		5.09832663		0.00000509		0.00000000	
		0.00000509		13.97493208		0.00000000	
		0.00000000		0.00000000		8.72428480	
PRIMCOORD
   70 1	
Si		2.54916230		0.00000000		0.00000000		-0.00000001		-0.00000006		 0.00000007	
Si		0.00000000		6.98746655		4.36214189		 0.00000001		-0.00000009		-0.00000009	
Si		2.48081267		5.25642018		0.00000000		-0.00037045		-0.00002660		0.00000000	
Si		2.61751904		8.71851546		0.00000000		 0.00037047		 0.00002655		 0.00000026	
Si		0.06835573		12.24389080		4.36214189		 0.00037980		-0.00004393		-0.00000003	
Si		5.02997599		1.73104484		4.36214240		-0.00038001		 0.00004399		-0.00000020	
Mg		0.85166780		2.42564918		0.00000000		-0.00028438		 0.00044026		 0.00000004	
Mg		4.24666392		11.54928646		0.00000000		 0.00028438		-0.00044022		 0.00000004	
Mg		1.69750060		9.41311725		4.36214189		 0.00028399		 0.00043486		-0.00000002	
Mg		3.40083111		4.56181788		4.36214189		-0.00028397		-0.00043481		-0.00000004	
Mg		0.80346304		4.51800680		2.82637071		-0.00013969		-0.00014738		 0.00008636	
Mg		4.29486868		9.45692833		5.89791358		 0.00013965		 0.00014745		-0.00008636	
Mg		4.29486868		9.45692833		2.82637071		 0.00013969		 0.00014740		 0.00008632	
Mg		0.80346304		4.51800680		5.89791358		-0.00013971		-0.00014738		-0.00008638	
Mg		1.74570791		11.50547538		1.53577169		 0.00013821		-0.00015263		-0.00008777	
Mg		3.35262381		2.46945975		7.18851260		-0.00013819		 0.00015265		 0.00008780	
Mg		3.35262381		2.46945975		1.53577169		-0.00013822		 0.00015263		-0.00008776	
Mg		1.74570791		11.50547538		7.18851260		 0.00013821		-0.00015259		 0.00008781	
Mg		2.54916586		6.98746757		2.80808806		 0.00000001		-0.00000004		-0.00032702	
Mg		2.54916586		6.98746757		5.91619623		-0.00000002		-0.00000002		 0.00032701	
Mg		0.00000000		0.00000000		1.55405485		0.00000000		 0.00000002		 0.00032516	
Mg		0.00000000		0.00000000		7.17022995		 0.00000001		-0.00000002		-0.00032515	
Mg		2.54916230		0.00000000		2.97891173		 0.00000002		-0.00000002		 0.00051514	
Mg		2.54916230		0.00000000		5.74537307		-0.00000004		-0.00000004		-0.00051517	
Mg		0.00000000		6.98746655		1.38323118		-0.00000002		-0.00000002		-0.00051784	
Mg		0.00000000		6.98746655		7.34105311		 0.00000002		-0.00000002		 0.00051789	
O		1.69700032		5.78194805		1.36976768		-0.00033449		 0.00022642		-0.00041776	
O		3.40133140		8.19298759		7.35451610		 0.00033450		-0.00022639		 0.00041763	
O		3.40133140		8.19298759		1.36976768		 0.00033437		-0.00022634		-0.00041787	
O		1.69700032		5.78194754		7.35451610		-0.00033442		 0.00022637		 0.00041775	
O		0.85217165		12.76941307		2.99237319		 0.00033396		 0.00022834		 0.00041919	
O		4.24616007		1.20552206		5.73191059		-0.00033394		-0.00022832		-0.00041912	
O		4.24616007		1.20552206		2.99237370		-0.00033391		-0.00022835		 0.00041928	
O		0.85217165		12.76941307		5.73191059		 0.00033397		 0.00022836		-0.00041918	
O		2.50796106		3.60599195		0.00000000		 0.00019706		 0.00009852		-0.00000008	
O		2.59037066		10.36894369		0.00000000		-0.00019710		-0.00009854		-0.00000006	
O		0.04120887		10.59345290		4.36214189		-0.00019853		 0.00011249		 0.00000002	
O		5.05712285		3.38148274		4.36214240		 0.00019861		-0.00011262		 0.00000010	
O		4.06234367		5.77529874		0.00000000		-0.00061030		-0.00005733		 0.00000009	
O		1.03598805		8.19963689		0.00000000		 0.00061030		 0.00005749		-0.00000005	
O		3.58515493		12.76276427		4.36214189		 0.00060254		-0.00005543		-0.00000005	
O		1.51317679		1.21217086		4.36214240		-0.00060238		 0.00005562		-0.00000004	
O		1.80739143		1.02827914		1.27277339		 0.00001294		-0.00010031		-0.00022691	
O		3.29094028		12.94665650		7.45151090		-0.00001293		 0.00010026		 0.00022689	
O		3.29094028		12.94665650		1.27277339		-0.00001292		 0.00010027		-0.00022690	
O		1.80739143		1.02827863		7.45151090		 0.00001293		-0.00010025		 0.00022687	
O		0.74177544		8.01574466		3.08936799		-0.00001368		-0.00009981		 0.00022811	
O		4.35655627		5.95919097		5.63491630		 0.00001368		 0.00009979		-0.00022810	
O		4.35655627		5.95919097		3.08936799		 0.00001369		 0.00009980		 0.00022812	
O		0.74177595		8.01574466		5.63491579		-0.00001370		-0.00009976		-0.00022807	
O		5.00143056		3.53783572		1.38113333		 0.00002892		 0.00010028		 0.00009158	
O		0.09690115		10.43709941		7.34315096		-0.00002942		-0.00009900		-0.00009251	
O		0.09690115		10.43709890		1.38113231		-0.00002986		-0.00009780		 0.00009317	
O		5.00143005		3.53783725		7.34315198		 0.00003044		 0.00009622		-0.00009417	
O		2.64605938		10.52528853		2.98100093		-0.00001518		 0.00014178		-0.00006764	
O		2.45227234		3.44964660		5.74328286		 0.00001553		-0.00014085		 0.00006829	
O		2.45227285		3.44964762		2.98100093		 0.00001484		-0.00014268		-0.00006703	
O		2.64605938		10.52528904		5.74328235		-0.00001584		 0.00013982		 0.00006882	
O		0.99097231		12.86606077		0.00000000		 0.00049502		 0.00068742		-0.00000002	
O		4.10735890		1.10887487		0.00000000		-0.00049509		-0.00068737		-0.00000001	
O		1.55819966		5.87859524		4.36214189		-0.00049517		 0.00068634		 0.00000002	
O		3.54013206		8.09634040		4.36214189		 0.00049523		-0.00068623		 0.00000002	
H		4.69466343		4.32549719		0.88314319		-0.00023100		 0.00038857		 0.00037710	
H		0.40366829		9.64943895		7.84114059		 0.00023149		-0.00038983		-0.00037628	
H		0.40366829		9.64943946		0.88314370		 0.00023189		-0.00039085		 0.00037563	
H		4.69466394		4.32549567		7.84114008		-0.00023246		 0.00039228		-0.00037469	
H		2.95283568		11.31297341		3.47900531		 0.00021709		 0.00035247		-0.00039990	
H		2.14549604		2.66196223		5.24527898		-0.00021744		-0.00035339		 0.00039934	
H		2.14549604		2.66196172		3.47900582		-0.00021678		-0.00035166		-0.00040046	
H		2.95283568		11.31297290		5.24527898		 0.00021778		 0.00035421		 0.00039878	
