# total energy = -49438.0911017 eV

CRYSTAL
PRIMVEC
		5.08939982		0.00000000		0.00000000
		0.00000000		13.96800031		1.67615821
		0.00000000		1.04346947		8.69560094
PRIMECORD
   70 1
Si		2.54469991		0.00000000		0.00000000		0.00000000		0.00000000		0.00000000
Si		0.00000000		7.50573591		5.18587957		0.00000000		0.00000000		0.00000000
Si		2.47349870		5.25923157		0.63110797		 0.00064369		 0.00009003		 0.00034540
Si		2.61590112		8.70876773		1.04505176		-0.00064369		-0.00009003		-0.00034540
Si		0.07120121		12.76496748		5.81698755		-0.00064369		 0.00009003		 0.00034540
Si		5.01819861		2.24650485		4.55477160		 0.00064369		-0.00009003		-0.00034540
Mg		0.86219522		2.42358797		0.29083121		-0.00044004		-0.00026263		-0.00025747
Mg		4.22720460		11.54441183		1.38532903		 0.00044004		 0.00026263		 0.00025747
Mg		1.68250469		9.92932388		5.47670976		 0.00044004		-0.00026263		-0.00025747
Mg		3.40689513		5.08214794		4.89504888		-0.00044004		 0.00026263		 0.00025747
Mg		0.80570289		4.85596585		3.35780584		-0.00036669		 0.00032589		 0.00006219
Mg		4.28369694		10.15550648		7.01395382		 0.00036669		-0.00032589		-0.00006219
Mg		4.28369694		9.78778665		3.94962364		 0.00025707		-0.00003662		-0.00007668
Mg		0.80570289		5.22368465		6.42213500		-0.00025707		 0.00003662		 0.00007668
Mg		1.73899703		11.68594855		2.91241465		 0.00025707		 0.00003662		 0.00007668
Mg		3.35040280		3.32552276		7.45934399		-0.00025707		-0.00003662		-0.00007668
Mg		3.35040280		2.64977006		1.82807374		-0.00036669		-0.00032589		-0.00006219
Mg		1.73899703		12.36170176		8.54368490		 0.00036669		 0.00032589		 0.00006219
Mg		2.54469991		7.31923587		3.63171479		-0.00030651		-0.00021712		-0.00061478
Mg		2.54469991		7.69223595		6.74004385		 0.00030651		 0.00021712		 0.00061478
Mg		0.00000000		0.18650004		1.55416478		-0.00030651		 0.00021712		 0.00061478
Mg		0.00000000		0.85697197		7.14143463		 0.00030651		-0.00021712		-0.00061478
Mg		2.54469991		0.35675319		2.97293881		 0.00021737		 0.00038926		-0.00018009
Mg		2.54469991		0.68671883		5.72266061		-0.00021737		-0.00038926		 0.00018009
Mg		0.00000000		7.14898374		2.21294077		 0.00021737		-0.00038926		 0.00018009
Mg		0.00000000		7.86248859		8.15881787		-0.00021737		 0.00038926		-0.00018009
O		1.69075002		5.93420457		2.05011305		-0.00016991		-0.00021594		 0.00040691
O		3.39864980		9.07726674		8.32164660		 0.00016991		 0.00021594		-0.00040691
O		3.39864980		8.35960895		2.34116107		-0.00008305		 0.00011958		-0.00021525
O		1.69075002		6.65186287		8.03059757		 0.00008305		-0.00011958		 0.00021525
O		0.85394989		13.11412779		4.52087874		-0.00008305		-0.00011958		 0.00021525
O		4.23544892		1.89734505		5.85088091		 0.00008305		 0.00011958		-0.00021525
O		4.23544892		1.57153083		3.13576703		-0.00016991		 0.00021594		-0.00040691
O		0.85394989		13.43994047		7.23599263		 0.00016991		-0.00021594		 0.00040691
O		2.50953216		3.62092475		0.43451107		-0.00024903		-0.00013854		 0.00049423
O		2.57986715		10.34707454		1.24164917		 0.00024903		 0.00013854		-0.00049423
O		0.03516775		11.12666066		5.62039065		 0.00024903		-0.00013854		 0.00049423
O		5.05423207		3.88481166		4.75136901		-0.00024903		 0.00013854		-0.00049423
O		4.02780191		5.78973585		0.69476822		-0.00021928		 0.00046967		 0.00010822
O		1.06159791		8.17826396		0.98139202		 0.00021928		-0.00046967		-0.00010822
O		3.60629782		13.29547175		5.88064779		 0.00021928		 0.00046967		 0.00010822
O		1.48310200		1.71600006		4.49111085		-0.00021928		-0.00046967		-0.00010822
O		1.81386210		1.17157017		1.38020910		 0.00032657		-0.00000779		-0.00046218
O		3.27553773		13.83990267		8.99155056		-0.00032657		 0.00000779		 0.00046218
O		3.27553773		13.09828652		2.81141500		-0.00026368		 0.00065489		-0.00021923
O		1.81386210		1.91318581		7.56034466		 0.00026368		-0.00065489		 0.00021923
O		0.73083781		8.37544970		4.05062482		-0.00026368		-0.00065489		 0.00021923
O		4.35856201		6.63602161		6.32113382		 0.00026368		 0.00065489		-0.00021923
O		4.35856201		6.33416676		3.80567099		 0.00032657		 0.00000779		 0.00046218
O		0.73083781		8.67730557		6.56608765		-0.00032657		-0.00000779		-0.00046218
O		5.00058979		3.68396206		1.80647992		-0.00038339		 0.00022345		 0.00000965
O		0.08881003		11.32751077		8.56527872		 0.00038339		-0.00022345		-0.00000965
O		0.08881003		10.61627987		2.63835912		-0.00014055		 0.00008714		 0.00028545
O		5.00058979		4.39519194		7.73340054		 0.00014055		-0.00008714		-0.00028545
O		2.63350994		10.85745584		4.22368070		-0.00014055		-0.00008714		-0.00028545
O		2.45588988		4.15401597		6.14807794		 0.00014055		 0.00008714		 0.00028545
O		2.45588988		3.82177385		3.37939863		-0.00038339		-0.00022345		-0.00000965
O		2.63350994		11.18969746		6.99236001		 0.00038339		 0.00022345		 0.00000965
O		0.99589376		12.86159431		1.54339103		-0.00005944		-0.00025419		 0.00013187
O		4.09350606		1.10640498		0.13276921		 0.00005944		 0.00025419		-0.00013187
O		1.54880615		6.39933092		5.05311087		 0.00005944		-0.00025419		 0.00013187
O		3.54059367		8.61214089		5.31864777		-0.00005944		 0.00025419		-0.00013187
H		4.69802498		4.33993379		1.45067896		 0.00031969		-0.00040808		-0.00004957
H		0.39137485		10.67153752		8.92108069		-0.00031969		 0.00040808		 0.00004957
H		0.39137485		9.85449952		2.11242614		-0.00017087		-0.00050700		 0.00035738
H		4.69802498		5.15697178		8.25933250		 0.00017087		 0.00050700		-0.00035738
H		2.93607476		11.61923670		4.74961266		-0.00017087		 0.00050700		-0.00035738
H		2.15332506		3.39223563		5.62214598		 0.00017087		-0.00050700		 0.00035738
H		2.15332506		3.16580314		3.73520112		 0.00031969		 0.00040808		 0.00004957
H		2.93607476		11.84566969		6.63655752		-0.00031969		-0.00040808		-0.00004957
