# total energy = -49446.8594693 eV

CRYSTAL
PRIMVEC
		5.08939982		0.00000000		0.00000000
		0.00000000		13.96800031		0.55871940
		0.00000000		0.34782485		8.69560094
PRIMECORD
   70 1
Si		2.54469991		0.00000000		0.00000000		0.00000000		0.00000000		0.00000000
Si		0.00000000		7.15791157		4.62715966		0.00000000		0.00000000		0.00000000
Si		2.47349870		5.25923157		0.21036881		-0.00026659		-0.00013011		-0.00002354
Si		2.61590112		8.70876773		0.34835110		 0.00026659		 0.00013011		 0.00002354
Si		0.07120121		12.41714364		4.83752899		 0.00026659		-0.00013011		-0.00002354
Si		5.01819861		1.89868102		4.41679085		-0.00026659		 0.00013011		 0.00002354
Mg		0.86219522		2.42358797		0.09694391		 0.00002561		 0.00045780		-0.00066059
Mg		4.22720460		11.54441183		0.46177601		-0.00002561		-0.00045780		 0.00066059
Mg		1.68250469		9.58149954		4.72410306		-0.00002561		 0.00045780		-0.00066059
Mg		3.40689513		4.73432359		4.53021576		 0.00002561		-0.00045780		 0.00066059
Mg		0.80570289		4.63071461		2.99635870		 0.00063874		-0.00026872		 0.00008404
Mg		4.28369694		9.68510954		6.25796063		-0.00063874		 0.00026872		-0.00008404
Mg		4.28369694		9.56253643		3.19363198		 0.00057206		-0.00020985		-0.00040347
Mg		0.80570289		4.75328771		6.06068786		-0.00057206		 0.00020985		 0.00040347
Mg		1.73899703		11.56337545		1.99224810		 0.00057206		 0.00020985		 0.00040347
Mg		3.35040280		2.75244768		7.26207071		-0.00057206		-0.00020985		-0.00040347
Mg		3.35040280		2.52719696		1.63080097		 0.00063874		 0.00026872		-0.00008404
Mg		1.73899703		11.78862668		7.62351785		-0.00063874		-0.00026872		 0.00008404
Mg		2.54469991		7.09574556		3.07299488		-0.00078352		 0.00033024		-0.00027566
Mg		2.54469991		7.22007858		6.18132394		 0.00078352		-0.00033024		 0.00027566
Mg		0.00000000		0.06216702		1.55416478		-0.00078352		-0.00033024		 0.00027566
Mg		0.00000000		0.28565682		7.14143463		 0.00078352		 0.00033024		-0.00027566
Mg		2.54469991		0.11891790		2.97293881		 0.00051230		 0.00044119		 0.00005293
Mg		2.54469991		0.22890594		5.72266061		-0.00051230		-0.00044119		-0.00005293
Mg		0.00000000		7.03899468		1.65422086		 0.00051230		-0.00044119		-0.00005293
Mg		0.00000000		7.27682997		7.60009796		-0.00051230		 0.00044119		 0.00005293
O		1.69075002		5.82560085		1.58840881		-0.00027256		-0.00005183		-0.00025661
O		3.39864980		8.49022381		7.66591052		 0.00027256		 0.00005183		 0.00025661
O		3.39864980		8.25100370		1.68542498		 0.00046132		-0.00032063		-0.00026549
O		1.69075002		6.06481994		7.56889383		-0.00046132		 0.00032063		 0.00026549
O		0.85394989		12.87490767		3.50045510		 0.00046132		 0.00032063		 0.00026549
O		4.23544892		1.44091597		5.75386474		-0.00046132		-0.00032063		-0.00026549
O		4.23544892		1.33231174		3.03875085		-0.00027256		 0.00005183		 0.00025661
O		0.85394989		12.98351241		6.21556898		 0.00027256		-0.00005183		-0.00025661
O		2.50953216		3.62092475		0.14483719		 0.00008871		-0.00009428		-0.00085762
O		2.57986715		10.34707454		0.41388323		-0.00008871		 0.00009428		 0.00085762
O		0.03516775		10.77883683		4.77199686		-0.00008871		-0.00009428		-0.00085762
O		5.05423207		3.53698783		4.48232298		 0.00008871		 0.00009428		 0.00085762
O		4.02780191		5.78973585		0.23158907		-0.00019001		-0.00027079		-0.00004311
O		1.06159791		8.17826396		0.32713084		 0.00019001		 0.00027079		 0.00004311
O		3.60629782		12.94764741		4.85874873		 0.00019001		-0.00027079		-0.00004311
O		1.48310200		1.36817572		4.39557009		-0.00019001		 0.00027079		 0.00004311
O		1.81386210		1.07095121		1.29855680		 0.00031028		 0.00027543		-0.00004920
O		3.27553773		13.24487243		7.95576252		-0.00031028		-0.00027543		 0.00004920
O		3.27553773		12.99766756		1.77562594		 0.00011146		 0.00010265		-0.00020792
O		1.81386210		1.31815608		7.47869389		-0.00011146		-0.00010265		 0.00020792
O		0.73083781		8.12824483		3.41025363		 0.00011146		-0.00010265		 0.00020792
O		4.35856201		6.18757983		5.84406468		-0.00011146		 0.00010265		-0.00020792
O		4.35856201		6.08696087		3.32860286		 0.00031028		-0.00027543		 0.00004920
O		0.73083781		8.22886277		5.92571697		-0.00031028		 0.00027543		-0.00004920
O		5.00058979		3.57321469		1.52505291		-0.00017346		-0.00033789		 0.00013306
O		0.08881003		10.74260946		7.72926591		 0.00017346		 0.00033789		-0.00013306
O		0.08881003		10.50553250		1.80234580		 0.00008450		-0.00002335		 0.00002077
O		5.00058979		3.81029063		7.45197352		-0.00008450		 0.00002335		-0.00002077
O		2.63350994		10.62037938		3.38353377		 0.00008450		 0.00002335		-0.00002077
O		2.45588988		3.69544476		5.87078556		-0.00008450		-0.00002335		 0.00002077
O		2.45588988		3.58469790		3.10210676		-0.00017346		 0.00033789		-0.00013306
O		2.63350994		10.73112676		6.15221257		 0.00017346		-0.00033789		 0.00013306
O		0.99589376		12.86159431		0.51446402		 0.00044409		 0.00021924		-0.00015645
O		4.09350606		1.10640498		0.04425589		-0.00044409		-0.00021924		 0.00015645
O		1.54880615		6.05150658		4.58290377		-0.00044409		 0.00021924		-0.00015645
O		3.54059367		8.26431655		4.67141607		 0.00044409		-0.00021924		 0.00015645
H		4.69802498		4.26445595		1.11254077		 0.00004601		 0.00042045		-0.00012690
H		0.39137485		10.05136769		8.14177754		-0.00004601		-0.00042045		 0.00012690
H		0.39137485		9.77902169		1.33312401		 0.00045543		-0.00041006		 0.00073193
H		4.69802498		4.53680195		7.92119583		-0.00045543		 0.00041006		-0.00073193
H		2.93607476		11.34689070		3.85275608		 0.00045543		 0.00041006		-0.00073193
H		2.15332506		2.96893396		5.40156376		-0.00045543		-0.00041006		 0.00073193
H		2.15332506		2.89345612		3.51461890		 0.00004601		-0.00042045		 0.00012690
H		2.93607476		11.42236752		5.73970094		-0.00004601		 0.00042045		-0.00012690
