# total energy = -49431.0148059 eV

CRYSTAL
PRIMVEC
		5.08939982		0.00000000		0.00000000
		0.00000000		13.96800031		2.23487761
		0.00000000		1.39129432		8.69560094
PRIMECORD
   70 1
Si		2.54469991		0.00000000		0.00000000		-0.00000000		0.00000000		0.00000000
Si		0.00000000		7.67964783		5.46523978		0.00000000		0.00000000		0.00000000
Si		2.47349870		5.25923157		0.84147679		 0.00069362		 0.00015988		-0.00004379
Si		2.61590112		8.70876773		1.39340286		-0.00069362		-0.00015988		 0.00004379
Si		0.07120121		12.93887939		6.30671657		-0.00069362		 0.00015988		-0.00004379
Si		5.01819861		2.42041677		4.62376300		 0.00069362		-0.00015988		 0.00004379
Mg		0.86219522		2.42358797		0.38777410		-0.00023053		 0.00007854		-0.00050626
Mg		4.22720460		11.54441183		1.84710606		 0.00023053		-0.00007854		 0.00050626
Mg		1.68250469		10.10323580		5.85301388		 0.00023053		 0.00007854		-0.00050626
Mg		3.40689513		5.25605985		5.07746569		-0.00023053		-0.00007854		 0.00050626
Mg		0.80570289		4.96859070		3.53852890		 0.00004199		-0.00026510		 0.00001473
Mg		4.28369694		10.39070546		7.39194965		-0.00004199		 0.00026510		-0.00001473
Mg		4.28369694		9.90041253		4.32762100		 0.00024678		-0.00011095		-0.00059650
Mg		0.80570289		5.45888363		6.60285857		-0.00024678		 0.00011095		 0.00059650
Mg		1.73899703		11.74723561		3.37249893		 0.00024678		 0.00011095		 0.00059650
Mg		3.35040280		3.61206004		7.55797962		-0.00024678		-0.00011095		-0.00059650
Mg		3.35040280		2.71105712		1.92670987		 0.00004199		 0.00026510		-0.00001473
Mg		1.73899703		12.64823853		9.00376868		-0.00004199		-0.00026510		 0.00001473
Mg		2.54469991		7.43098179		3.91107500		 0.00023372		 0.00034314		-0.00032113
Mg		2.54469991		7.92831488		7.01940355		-0.00023372		-0.00034314		 0.00032113
Mg		0.00000000		0.24866604		1.55416478		 0.00023372		-0.00034314		 0.00032113
Mg		0.00000000		1.14262981		7.14143463		-0.00023372		 0.00034314		-0.00032113
Mg		2.54469991		0.47567007		2.97293881		-0.00012495		-0.00008458		 0.00010746
Mg		2.54469991		0.91562578		5.72266061		 0.00012495		 0.00008458		-0.00010746
Mg		0.00000000		7.20397776		2.49230098		-0.00012495		 0.00008458		-0.00010746
Mg		0.00000000		8.15531789		8.43817757		 0.00012495		-0.00008458		 0.00010746
O		1.69075002		5.98850694		2.28096467		 0.00011618		-0.00037551		-0.00007232
O		3.39864980		9.37078871		8.64951490		-0.00011618		 0.00037551		 0.00007232
O		3.39864980		8.41391081		2.66902886		-0.00013611		-0.00063265		-0.00025359
O		1.69075002		6.94538484		8.26144969		 0.00013611		 0.00063265		 0.00025359
O		0.85394989		13.23373632		5.03109108		-0.00013611		 0.00063265		 0.00025359
O		4.23544892		2.12555883		5.89938900		 0.00013611		-0.00063265		-0.00025359
O		4.23544892		1.69114089		3.18427512		 0.00011618		 0.00037551		 0.00007232
O		0.85394989		13.66815527		7.74620496		-0.00011618		-0.00037551		-0.00007232
O		2.50953216		3.62092475		0.57934776		-0.00009259		 0.00014462		-0.00026142
O		2.57986715		10.34707454		1.65553189		 0.00009259		-0.00014462		 0.00026142
O		0.03516775		11.30057258		6.04458754		 0.00009259		 0.00014462		-0.00026142
O		5.05423207		4.05872409		4.88589203		-0.00009259		-0.00014462		 0.00026142
O		4.02780191		5.78973585		0.92635780		 0.00027697		 0.00001175		-0.00017498
O		1.06159791		8.17826396		1.30852185		-0.00027697		-0.00001175		 0.00017498
O		3.60629782		13.46938367		6.39159758		-0.00027697		 0.00001175		-0.00017498
O		1.48310200		1.88991198		4.53888199		 0.00027697		-0.00001175		 0.00017498
O		1.81386210		1.22187889		1.42103372		-0.00024126		 0.00049460		-0.00053074
O		3.27553773		14.13741727		9.50944585		 0.00024126		-0.00049460		 0.00053074
O		3.27553773		13.14859575		3.32930876		-0.00004327		-0.00007989		-0.00042813
O		1.81386210		2.21070092		7.60117081		 0.00004327		 0.00007989		 0.00042813
O		0.73083781		8.49905290		4.37081067		-0.00004327		 0.00007989		 0.00042813
O		4.35856201		6.86024377		6.55966788		 0.00004327		-0.00007989		-0.00042813
O		4.35856201		6.45776894		4.04420607		-0.00024126		-0.00049460		 0.00053074
O		0.73083781		8.90152671		6.88627401		 0.00024126		 0.00049460		-0.00053074
O		5.00058979		3.73933473		1.94719368		 0.00059270		 0.00046362		-0.00031742
O		0.08881003		11.61996041		8.98328487		-0.00059270		-0.00046362		 0.00031742
O		0.08881003		10.67165356		3.05636476		-0.00029987		 0.00014817		-0.00012256
O		5.00058979		4.68764260		7.87411481		 0.00029987		-0.00014817		 0.00012256
O		2.63350994		10.97599458		4.64375467		-0.00029987		-0.00014817		 0.00012256
O		2.45588988		4.38330107		6.28672490		 0.00029987		 0.00014817		-0.00012256
O		2.45588988		3.94031309		3.51804610		 0.00059270		-0.00046362		 0.00031742
O		2.63350994		11.41898357		7.41243398		-0.00059270		 0.00046362		-0.00031742
O		0.99589376		12.86159431		2.05785505		 0.00007694		-0.00029467		 0.00090448
O		4.09350606		1.10640498		0.17702510		-0.00007694		 0.00029467		-0.00090448
O		1.54880615		6.57324284		5.28821468		-0.00007694		-0.00029467		 0.00090448
O		3.54059367		8.78605281		5.64226489		 0.00007694		 0.00029467		-0.00090448
H		4.69802498		4.37767169		1.61974679		 0.00002674		 0.00075684		-0.00037944
H		0.39137485		10.98162244		9.31073176		-0.00002674		-0.00075684		 0.00037944
H		0.39137485		9.89223844		2.50207771		 0.00020038		-0.00050296		-0.00016305
H		4.69802498		5.46705670		8.42840185		-0.00020038		 0.00050296		 0.00016305
H		2.93607476		11.75540970		5.19804171		 0.00020038		 0.00050296		 0.00016305
H		2.15332506		3.60388697		5.73243786		-0.00020038		-0.00050296		-0.00016305
H		2.15332506		3.30197563		3.84549300		 0.00002674		-0.00075684		 0.00037944
H		2.93607476		12.05732053		7.08498657		-0.00002674		 0.00075684		-0.00037944
