# total energy = -2069.16035414 eV	

CRYSTAL	
PRIMVEC	
		2.89895699		0.00000000		0.00000000	
		-1.44947850		2.51057119		0.00000000	
		0.00000000		0.00000000		2.65121719	
PRIMCOORD
   2 1	
Mg		0.00000000		0.00000000		0.00000000		-0.00000001		 0.00000004		 0.00000002	
O		0.00000000		1.67371384		1.32560860		 0.00000001		-0.00000004		-0.00000002	
