# total energy = -2069.1428036 eV	

CRYSTAL	
PRIMVEC	
		2.86824292		0.00000000		0.00000000	
		-1.43412146		2.48397035		0.00000000	
		0.00000000		0.00000000		2.62867670	
PRIMCOORD
   2 1	
Mg		0.00000000		0.00000000		0.00000000		-0.00000004		-0.00000000		 0.00000002	
O		0.00000000		1.65598082		1.31433894		 0.00000004		0.00000000		-0.00000002	
