# total energy = -2069.15351143 eV	

CRYSTAL	
PRIMVEC	
		2.88319451		0.00000000		0.00000000	
		-1.44159579		2.49692115		0.00000000	
		0.00000000		0.00000000		2.63963258	
PRIMCOORD
   2 1	
Mg		0.00000000		0.00000000		0.00000000		-0.00000003		 0.00000003		 0.00000001	
O		0.00000000		1.66461361		1.31981688		 0.00000003		-0.00000003		-0.00000001	
