# total energy = -9214.28264604 eV	

CRYSTAL	
PRIMVEC	
		5.32599971		0.00000000		0.00000000	
		-2.66299986		5.07369645		0.00000000	
		0.00000000		0.00000000		7.28800214	
PRIMCOORD
   18 1	
Mg		1.76716670		0.00000000		3.31603985		-0.00066232		-0.00000000		-0.00063406	
Mg		-0.88358282		1.68345317		3.31603985		 0.00048174		 0.00062069		-0.00058652	
Mg		1.77941704		3.39024381		3.31603985		 0.00048174		-0.00062069		-0.00058652	
Si		0.00000000		3.38246466		0.53931180		 0.00008583		-0.00001165		 0.00024339	
Si		2.66299986		1.69123180		0.53931180		 0.00008583		 0.00001165		 0.00024339	
H		3.10505783		0.00000000		5.33481584		-0.00016867		-0.00000000		-0.00001462	
H		-1.55252892		2.95796490		5.33481584		-0.00000147		-0.00020722		 0.00038333	
H		1.11047094		2.11573102		5.33481584		-0.00000147		 0.00020722		 0.00038333	
H		0.00000000		0.00000000		1.43573613		 0.00010597		0.00000000		 0.00019474	
O		0.00000000		3.38246466		2.12153689		-0.00000645		-0.00023463		 0.00037963	
O		2.66299986		1.69123180		2.12153689		-0.00000645		 0.00023463		 0.00037963	
O		2.70028185		0.00000000		7.22969575		 0.00008354		0.00000000		 0.00025269	
O		-1.35014093		2.57236412		7.22969575		-0.00004462		 0.00019363		 0.00033965	
O		1.31285893		2.50133180		7.22969575		-0.00004462		-0.00019363		 0.00033965	
O		3.53646381		0.00000000		4.28534357		 0.00017477		-0.00000000		-0.00070189	
O		-1.76823190		3.36893395		4.28534357		-0.00035806		 0.00029750		-0.00059349	
O		0.89476795		1.70476197		4.28534357		-0.00035806		-0.00029750		-0.00059349	
O		0.00000000		0.00000000		2.21555197		 0.00015277		0.00000000		 0.00057117	
