# total energy = -9214.49876789 eV	

CRYSTAL	
PRIMVEC	
		5.32599971		0.00000000		0.00000000	
		-2.66299986		4.26651989		0.00000000	
		0.00000000		0.00000000		7.28800214	
PRIMCOORD
   18 1	
Mg		1.76716670		0.00000000		3.31603985		-0.00070743		-0.00000000		-0.00019369	
Mg		-0.88358282		1.41563102		3.31603985		 0.00006369		-0.00030117		-0.00016407	
Mg		1.77941704		2.85088674		3.31603985		 0.00006369		 0.00030117		-0.00016407	
Si		0.00000000		2.84434482		0.53931180		 0.00010003		-0.00000141		-0.00011886	
Si		2.66299986		1.42217294		0.53931180		 0.00010003		 0.00000141		-0.00011886	
H		3.10505783		0.00000000		5.33481584		 0.00006536		-0.00000000		-0.00028424	
H		-1.55252892		2.48737981		5.33481584		-0.00022639		-0.00011786		-0.00010702	
H		1.11047094		1.77913795		5.33481584		-0.00022639		 0.00011786		-0.00010702	
H		0.00000000		0.00000000		1.43573613		 0.00013537		0.00000000		 0.00010040	
O		0.00000000		2.84434482		2.12153689		 0.00019241		 0.00000012		 0.00003951	
O		2.66299986		1.42217294		2.12153689		 0.00019241		-0.00000012		 0.00003951	
O		2.70028185		0.00000000		7.22969575		 0.00009196		0.00000000		-0.00014593	
O		-1.35014093		2.16312496		7.22969575		 0.00009982		-0.00003092		 0.00011339	
O		1.31285893		2.10339280		7.22969575		 0.00009982		 0.00003092		 0.00011339	
O		3.53646381		0.00000000		4.28534357		-0.00015580		-0.00000000		 0.00040451	
O		-1.76823190		2.83296795		4.28534357		-0.00007759		 0.00038821		 0.00027060	
O		0.89476795		1.43354981		4.28534357		-0.00007759		-0.00038821		 0.00027060	
O		0.00000000		0.00000000		2.21555197		 0.00026660		0.00000000		 0.00005184	
