# total energy = -38090.8190004 eV	

CRYSTAL	
PRIMVEC	
		5.69209984		0.00000000		0.00000000	
		0.00000000		11.46000138		-1.37519994	
		0.00000000		-0.99036276		8.25299833	
PRIMCOORD
   58 1	
O		1.53572911		0.42510594		8.02539175		 0.00047754		-0.00017707		-0.00006442	
O		4.15637074		10.04453382		-1.14759222		-0.00047754		 0.00017707		 0.00006442	
O		4.15637074		3.33823669		7.67581599		-0.00056408		 0.00012182		-0.00005816	
O		1.53572911		7.13140307		-0.79801589		 0.00056408		-0.00012182		 0.00005816	
O		1.53572911		10.04453382		-1.14759222		 0.00047754		 0.00017707		 0.00006442	
O		4.15637074		0.42510594		8.02539175		-0.00047754		-0.00017707		-0.00006442	
O		4.15637074		7.13140307		-0.79801589		-0.00056408		-0.00012182		 0.00005816	
O		1.53572911		3.33823669		7.67581599		 0.00056408		 0.00012182		-0.00005816	
O		2.84604992		4.86135381		5.56280607		0.00000000		 0.00086132		 0.00037793	
O		2.84604992		5.60828595		1.31499403		0.00000000		-0.00086132		-0.00037793	
O		2.84604992		-0.62798604		6.22152660		0.00000000		-0.00050219		 0.00027216	
O		2.84604992		11.09762580		0.65627293		0.00000000		 0.00050219		-0.00027216	
O		0.00000000		2.15510983		5.57194986		0.00000000		-0.00008573		-0.00015479	
O		0.00000000		8.31452993		1.30585024		0.00000000		 0.00008573		 0.00015479	
O		0.00000000		2.64840769		1.46113072		0.00000000		 0.00004945		-0.00017148	
O		0.00000000		7.82123207		5.41666881		0.00000000		-0.00004945		 0.00017148	
O		2.84604992		7.88322757		4.90003106		0.00000000		 0.00021929		 0.00026685	
O		2.84604992		2.58641219		1.97776904		0.00000000		-0.00021929		-0.00026685	
O		2.84604992		8.38028962		0.75785016		0.00000000		 0.00013487		-0.00055336	
O		2.84604992		2.08935014		6.11994994		0.00000000		-0.00013487		 0.00055336	
O		0.00000000		11.08653360		0.74870694		0.00000000		-0.00001505		-0.00059721	
O		0.00000000		-0.61689384		6.12909373		0.00000000		 0.00001505		 0.00059721	
O		0.00000000		5.59719376		1.40742690		-0.00000000		-0.00036911		 0.00012230	
O		0.00000000		4.87244600		5.47037263		-0.00000000		 0.00036911		-0.00012230	
O		4.38177903		6.65028573		3.21129205		-0.00003950		 0.00051954		-0.00037994	
O		1.31032081		3.81935403		3.66650805		 0.00003950		-0.00051954		 0.00037994	
O		1.31032081		9.56341648		2.86171572		 0.00022046		-0.00055258		-0.00045002	
O		4.38177903		0.90622271		4.01608381		-0.00022046		 0.00055258		 0.00045002	
O		4.38177903		3.81935403		3.66650805		-0.00003950		-0.00051954		 0.00037994	
O		1.31032081		6.65028573		3.21129205		 0.00003950		 0.00051954		-0.00037994	
O		1.31032081		0.90622271		4.01608381		 0.00022046		 0.00055258		 0.00045002	
O		4.38177903		9.56341648		2.86171572		-0.00022046		-0.00055258		-0.00045002	
H		2.84604992		8.00920171		3.85025018		0.00000000		 0.00012763		 0.00010896	
H		2.84604992		2.46043805		3.02755106		0.00000000		-0.00012763		-0.00010896	
H		0.00000000		2.52243412		2.51091274		0.00000000		 0.00067909		-0.00043256	
H		0.00000000		7.94720564		4.36688679		0.00000000		-0.00067909		 0.00043256	
Mg		2.84604992		5.23481988		3.43889977		0.00000000		0.00000000		0.00000000	
Mg		2.84604992		-0.49518024		4.12649974		0.00000000		0.00000000		0.00000000	
Mg		0.00000000		0.00000000		0.00000000		0.00000000		0.00000000		0.00000000	
Mg		0.00000000		5.73000012		-0.68759997		0.00000000		0.00000000		0.00000000	
Mg		1.42302496		1.20095395		1.88942481		 0.00055674		-0.00065805		-0.00019476	
Mg		4.26907488		9.26868581		4.98837472		-0.00055674		 0.00065805		 0.00019476	
Mg		4.26907488		4.03386593		1.54947496		-0.00023775		 0.00049069		-0.00008130	
Mg		1.42302496		6.43577383		5.32832457		 0.00023775		-0.00049069		 0.00008130	
Mg		1.42302496		9.26868581		4.98837472		 0.00055674		 0.00065805		 0.00019476	
Mg		4.26907488		1.20095395		1.88942481		-0.00055674		-0.00065805		-0.00019476	
Mg		4.26907488		6.43577383		5.32832457		-0.00023775		-0.00049069		 0.00008130	
Mg		1.42302496		4.03386593		1.54947496		 0.00023775		 0.00049069		-0.00008130	
Mg		0.00000000		1.90425216		7.66243500		0.00000000		-0.00041106		-0.00038786	
Mg		0.00000000		8.56538760		-0.78463490		0.00000000		 0.00041106		 0.00038786	
Si		2.84604992		6.99086968		0.10953820		0.00000000		 0.00036061		 0.00045057	
Si		2.84604992		3.47877008		6.76826190		0.00000000		-0.00036061		-0.00045057	
Si		2.84604992		9.96817772		-0.24773897		0.00000000		-0.00002671		-0.00027722	
Si		2.84604992		0.50146204		7.12553907		0.00000000		 0.00002671		 0.00027722	
Si		0.00000000		0.76568989		4.92363790		0.00000000		 0.00000384		 0.00046285	
Si		0.00000000		9.70394987		1.95416220		0.00000000		-0.00000384		-0.00046285	
Si		0.00000000		3.74299792		4.56636073		0.00000000		-0.00023301		 0.00012035	
Si		0.00000000		6.72664184		2.31143880		0.00000000		 0.00023301		-0.00012035	
