# total energy = -24715.2405377 eV	

CRYSTAL	
PRIMVEC	
		9.53870002		0.00000000		0.00000000	
		0.00000000		8.44360003		0.00000000	
		-1.68714803		0.00000000		4.98419015	
PRIMCOORD
   40 1	
Mg		-0.42178796		7.63470110		1.24604801		0.00000000		 0.00085424		0.00000000	
Mg		-1.26536388		0.80889607		3.73814309		-0.00000000		-0.00085424		-0.00000000	
Mg		4.34756205		3.41290204		1.24604801		-0.00000008		 0.00087566		 0.00000009	
Mg		3.50398613		5.03069513		3.73814309		 0.00000008		-0.00087566		-0.00000009	
Mg		-0.42178796		2.41149115		1.24604801		 0.00000009		-0.00081411		 0.00000024	
Mg		-1.26536388		6.03210601		3.73814309		-0.00000009		 0.00081411		-0.00000024	
Mg		4.34756205		6.63329021		1.24604801		 0.00000003		-0.00083781		 0.00000014	
Mg		3.50398613		1.81030695		3.73814309		-0.00000003		 0.00083781		-0.00000014	
Si		2.37296148		0.77664191		1.22461646		 0.00018221		 0.00024602		 0.00039607	
Si		5.47858670		7.66695621		3.75957464		-0.00018221		-0.00024602		-0.00039607	
Si		6.32216262		0.77664191		1.26747957		-0.00018143		 0.00024464		-0.00039522	
Si		1.52938461		7.66695621		3.71671059		 0.00018143		-0.00024464		 0.00039522	
Si		7.14231149		4.99844097		1.22461646		-0.00005041		 0.00008187		 0.00027273	
Si		0.70923669		3.44515715		3.75957464		 0.00005041		-0.00008187		-0.00027273	
Si		1.55281261		4.99844097		1.26747957		 0.00005332		 0.00007864		-0.00027036	
Si		6.29873462		3.44515715		3.71671059		-0.00005332		-0.00007864		 0.00027036	
O		0.84504584		0.69913043		0.68781754		-0.00025825		-0.00025037		-0.00034983	
O		7.00650234		7.74446673		4.29637262		 0.00025825		 0.00025037		 0.00034983	
O		7.85007827		0.69913043		1.80427659		 0.00025759		-0.00025019		 0.00034943	
O		0.00146991		7.74446673		3.17991357		-0.00025759		 0.00025019		-0.00034943	
O		5.61439585		4.92092854		0.68781754		-0.00011591		-0.00023907		-0.00029521	
O		2.23715233		3.52266863		4.29637262		 0.00011591		 0.00023907		 0.00029521	
O		3.08072825		4.92092854		1.80427659		 0.00011395		-0.00023894		 0.00029428	
O		4.77081993		3.52266863		3.17991357		-0.00011395		 0.00023894		-0.00029428	
O		2.93192644		2.17591483		1.58447441		-0.00065108		-0.00027843		-0.00035448	
O		4.91962174		6.26768329		3.39971669		 0.00065108		 0.00027843		 0.00035448	
O		5.76319766		2.17591483		0.90762066		 0.00065064		-0.00027739		 0.00035406	
O		2.08834861		6.26768329		4.07657044		-0.00065064		 0.00027739		-0.00035406	
O		7.70127645		6.39771389		1.58447441		-0.00055783		-0.00011169		-0.00030612	
O		0.15027173		2.04588423		3.39971669		 0.00055783		 0.00011169		 0.00030612	
O		0.99384765		6.39771389		0.90762066		 0.00055653		-0.00010873		 0.00030515	
O		6.85769958		2.04588423		4.07657044		-0.00055653		 0.00010873		-0.00030515	
O		3.33603347		0.05488282		0.12859217		 0.00010105		-0.00020282		 0.00029233	
O		4.51551471		8.38871435		4.85559894		-0.00010105		 0.00020282		-0.00029233	
O		5.35909063		0.05488282		2.36350386		-0.00010085		-0.00020254		-0.00029265	
O		2.49245659		8.38871435		2.62068820		 0.00010085		 0.00020254		 0.00029265	
O		8.10538348		4.27668188		0.12859217		 0.00012673		-0.00019196		 0.00031613	
O		-0.25383530		4.16691529		4.85559894		-0.00012673		 0.00019196		-0.00031613	
O		0.58974062		4.27668188		2.36350386		-0.00012641		-0.00019167		-0.00031643	
O		7.26180660		4.16691529		2.62068820		 0.00012641		 0.00019167		 0.00031643	
