# total energy = -24716.1038588 eV	

CRYSTAL	
PRIMVEC	
		9.53870002		0.00000000		0.00000000	
		0.00000000		8.87659978		0.00000000	
		-1.68714803		0.00000000		4.98419015	
PRIMCOORD
   40 1	
Mg		-0.42178796		8.02622372		1.24604801		 0.00000009		-0.00048901		-0.00000009	
Mg		-1.26536388		0.85037797		3.73814309		-0.00000009		 0.00048901		 0.00000009	
Mg		4.34756205		3.58792287		1.24604801		 0.00000009		-0.00047231		-0.00000009	
Mg		3.50398613		5.28867976		3.73814309		-0.00000009		 0.00047231		 0.00000009	
Mg		-0.42178796		2.53515754		1.24604801		-0.00000004		 0.00018705		-0.00000013	
Mg		-1.26536388		6.34144510		3.73814309		 0.00000004		-0.00018705		 0.00000013	
Mg		4.34756205		6.97345933		1.24604801		-0.00000003		 0.00018213		-0.00000014	
Mg		3.50398613		1.90314426		3.73814309		 0.00000003		-0.00018213		 0.00000014	
Si		2.37296148		0.81646980		1.22461646		-0.00048780		 0.00058273		-0.00024037	
Si		5.47858670		8.06013284		3.75957464		 0.00048780		-0.00058273		 0.00024037	
Si		6.32216262		0.81646980		1.26747957		 0.00048625		 0.00058502		 0.00023879	
Si		1.52938461		8.06013284		3.71671059		-0.00048625		-0.00058502		-0.00023879	
Si		7.14231149		5.25477064		1.22461646		-0.00049292		 0.00058236		-0.00021324	
Si		0.70923669		3.62183104		3.75957464		 0.00049292		-0.00058236		 0.00021324	
Si		1.55281261		5.25477064		1.26747957		 0.00049143		 0.00058462		 0.00021172	
Si		6.29873462		3.62183104		3.71671059		-0.00049143		-0.00058462		-0.00021172	
O		0.84504584		0.73498259		0.68781754		 0.00017801		-0.00040313		 0.00007731	
O		7.00650234		8.14162005		4.29637262		-0.00017801		 0.00040313		-0.00007731	
O		7.85007827		0.73498259		1.80427659		-0.00017685		-0.00040322		-0.00007673	
O		0.00146991		8.14162005		3.17991357		 0.00017685		 0.00040322		 0.00007673	
O		5.61439585		5.17328439		0.68781754		 0.00017270		-0.00039944		 0.00009112	
O		2.23715233		3.70331921		4.29637262		-0.00017270		 0.00039944		-0.00009112	
O		3.08072825		5.17328439		1.80427659		-0.00017158		-0.00039955		-0.00009056	
O		4.77081993		3.70331921		3.17991357		 0.00017158		 0.00039955		 0.00009056	
O		2.93192644		2.28750045		1.58447441		-0.00023582		-0.00007239		 0.00040387	
O		4.91962174		6.58910219		3.39971669		 0.00023582		 0.00007239		-0.00040387	
O		5.76319766		2.28750045		0.90762066		 0.00023656		-0.00007427		-0.00040304	
O		2.08834861		6.58910219		4.07657044		-0.00023656		 0.00007427		 0.00040304	
O		7.70127645		6.72580130		1.58447441		-0.00023717		-0.00007527		 0.00035152	
O		0.15027173		2.15080134		3.39971669		 0.00023717		 0.00007527		-0.00035152	
O		0.99384765		6.72580130		0.90762066		 0.00023790		-0.00007712		-0.00035072	
O		6.85769958		2.15080134		4.07657044		-0.00023790		 0.00007712		 0.00035072	
O		3.33603347		0.05769769		0.12859217		-0.00044259		-0.00015052		-0.00026392	
O		4.51551471		8.81890495		4.85559894		 0.00044259		 0.00015052		 0.00026392	
O		5.35909063		0.05769769		2.36350386		 0.00044228		-0.00015100		 0.00026443	
O		2.49245659		8.81890495		2.62068820		-0.00044228		 0.00015100		-0.00026443	
O		8.10538348		4.49599948		0.12859217		-0.00044116		-0.00011789		-0.00026530	
O		-0.25383530		4.38060315		4.85559894		 0.00044116		 0.00011789		 0.00026530	
O		0.58974062		4.49599948		2.36350386		 0.00044084		-0.00011833		 0.00026579	
O		7.26180660		4.38060315		2.62068820		-0.00044084		 0.00011833		-0.00026579	
