# total energy = -24716.1879967 eV	

CRYSTAL	
PRIMVEC	
		9.53870002		0.00000000		0.00000000	
		0.00000000		9.09310919		0.00000000	
		-1.68714803		0.00000000		4.98419015	
PRIMCOORD
   40 1	
Mg		-0.42178796		8.22198646		1.24604801		-0.00000015		 0.00007018		 0.00000008	
Mg		-1.26536388		0.87111892		3.73814309		 0.00000015		-0.00007018		-0.00000008	
Mg		4.34756205		3.67543282		1.24604801		-0.00000012		 0.00007191		 0.00000007	
Mg		3.50398613		5.41767161		3.73814309		 0.00000012		-0.00007191		-0.00000007	
Mg		-0.42178796		2.59699121		1.24604801		 0.00000009		-0.00053084		 0.00000009	
Mg		-1.26536388		6.49611417		3.73814309		-0.00000009		 0.00053084		-0.00000009	
Mg		4.34756205		7.14354294		1.24604801		 0.00000009		-0.00053370		 0.00000011	
Mg		3.50398613		1.94956243		3.73814309		-0.00000009		 0.00053370		-0.00000011	
Si		2.37296148		0.83638374		1.22461646		-0.00016962		-0.00053487		-0.00024727	
Si		5.47858670		8.25672068		3.75957464		 0.00016962		 0.00053487		 0.00024727	
Si		6.32216262		0.83638374		1.26747957		 0.00017054		-0.00053718		 0.00024863	
Si		1.52938461		8.25672068		3.71671059		-0.00017054		 0.00053718		-0.00024863	
Si		7.14231149		5.38293643		1.22461646		-0.00019308		-0.00054447		-0.00025950	
Si		0.70923669		3.71016895		3.75957464		 0.00019308		 0.00054447		 0.00025950	
Si		1.55281261		5.38293643		1.26747957		 0.00019389		-0.00054671		 0.00026075	
Si		6.29873462		3.71016895		3.71671059		-0.00019389		 0.00054671		-0.00026075	
O		0.84504584		0.75290867		0.68781754		-0.00015354		 0.00000867		-0.00013906	
O		7.00650234		8.34019575		4.29637262		 0.00015354		-0.00000867		 0.00013906	
O		7.85007827		0.75290867		1.80427659		 0.00015267		 0.00000879		 0.00013862	
O		0.00146991		8.34019575		3.17991357		-0.00015267		-0.00000879		-0.00013862	
O		5.61439585		5.29946231		0.68781754		-0.00013593		 0.00000626		-0.00013619	
O		2.23715233		3.79364306		4.29637262		 0.00013593		-0.00000626		 0.00013619	
O		3.08072825		5.29946231		1.80427659		 0.00013511		 0.00000638		 0.00013579	
O		4.77081993		3.79364306		3.17991357		-0.00013511		-0.00000638		-0.00013579	
O		2.93192644		2.34329326		1.58447441		-0.00066611		-0.00023766		 0.00027487	
O		4.91962174		6.74981211		3.39971669		 0.00066611		 0.00023766		-0.00027487	
O		5.76319766		2.34329326		0.90762066		 0.00066555		-0.00023611		-0.00027564	
O		2.08834861		6.74981211		4.07657044		-0.00066555		 0.00023611		 0.00027564	
O		7.70127645		6.88984500		1.58447441		-0.00065865		-0.00022719		 0.00028467	
O		0.15027173		2.20325942		3.39971669		 0.00065865		 0.00022719		-0.00028467	
O		0.99384765		6.88984500		0.90762066		 0.00065813		-0.00022566		-0.00028532	
O		6.85769958		2.20325942		4.07657044		-0.00065813		 0.00022566		 0.00028532	
O		3.33603347		0.05910465		0.12859217		-0.00088338		-0.00024798		-0.00018178	
O		4.51551471		9.03399977		4.85559894		 0.00088338		 0.00024798		 0.00018178	
O		5.35909063		0.05910465		2.36350386		 0.00088391		-0.00024710		 0.00018073	
O		2.49245659		9.03399977		2.62068820		-0.00088391		 0.00024710		-0.00018073	
O		8.10538348		4.60565829		0.12859217		-0.00088066		-0.00024875		-0.00017930	
O		-0.25383530		4.48744709		4.85559894		 0.00088066		 0.00024875		 0.00017930	
O		0.58974062		4.60565829		2.36350386		 0.00088117		-0.00024796		 0.00017816	
O		7.26180660		4.48744709		2.62068820		-0.00088117		 0.00024796		-0.00017816	
