# total energy = -10831.1785172 eV	

CRYSTAL	
PRIMVEC	
		3.16871000		0.00000000		-0.00002729	
		-1.58435652		2.74418147		0.00000000	
		0.00033049		0.00019102		19.44199144	
PRIMCOORD
   13 1	
Mg		1.58448689		0.91480296		2.38751789		-0.00000428		-0.00000267		-0.00002989	
Mg		0.00020648		1.82957589		17.05452721		 0.00000369		 0.00000219		 0.00001705	
Mg		0.00000576		0.00000364		0.00006307		-0.00000012		-0.00000006		-0.00000669	
Mg		0.00006276		1.82948039		4.79881849		-0.00000032		 0.00000005		-0.00022779	
Mg		1.58461575		0.91488694		14.64309594		-0.00000120		-0.00000107		 0.00024225	
O		1.58461969		0.91488209		18.24791610		 0.00000218		 0.00000121		 0.00012293	
O		0.00007762		1.82949767		1.19416690		-0.00000282		-0.00000149		-0.00013139	
O		1.58438229		0.91473201		5.82344716		 0.00000691		 0.00000441		-0.00066670	
O		0.00028167		1.82962471		13.61845483		-0.00000463		-0.00000269		 0.00049883	
O		0.00017161		0.00010218		15.85467288		 0.00001148		 0.00000711		 0.00006082	
O		0.00015281		0.00008914		3.58733401		-0.00001054		-0.00000677		-0.00005972	
H		1.58431164		0.91469714		6.78350666		 0.00000319		 0.00000180		 0.00058828	
H		0.00037809		1.82967777		12.65829861		-0.00000353		-0.00000202		-0.00040798	
