# total energy = -10831.8426973 eV	

CRYSTAL	
PRIMVEC	
		2.98656562		0.00000000		0.00000000	
		-1.49328433		2.58644166		0.00000000	
		0.00000000		0.00000000		14.32869905	
PRIMCOORD
   13 1	
Mg		1.49328311		0.86214712		2.40214335		-0.00000004		-0.00000001		-0.00007109	
Mg		0.00000000		1.72429363		11.92654327		 0.00000006		 0.00000003		 0.00014523	
Mg		0.00000000		0.00000000		-0.00000637		 0.00000001		-0.00000001		 0.00003659	
Mg		0.00000000		1.72429424		4.81763326		 0.00000016		 0.00000015		 0.00004845	
Mg		1.49328251		0.86214682		9.51108489		-0.00000015		-0.00000017		-0.00013695	
O		1.49328251		0.86214682		13.12802244		-0.00000010		-0.00000008		-0.00041983	
O		0.00000000		1.72429424		1.20069844		 0.00000009		 0.00000009		 0.00034752	
O		1.49328342		0.86214772		5.88812184		-0.00000011		-0.00000011		 0.00066123	
O		0.00000000		1.72429333		8.44019517		 0.00000011		 0.00000014		 0.00078006	
O		0.00000000		0.00000000		10.72034115		 0.00000003		 0.00000004		 0.00040410	
O		0.00000000		0.00000000		3.60838428		-0.00000006		-0.00000007		-0.00048431	
H		1.49328281		0.86214712		6.84927620		 0.00000001		 0.00000002		-0.00042852	
H		0.00000000		1.72429424		7.47975486		-0.00000001		-0.00000001		-0.00088246	
