
     Program PWSCF v.6.6 starts on  4Feb2024 at 13:33:50 

     This program is part of the open-source Quantum ESPRESSO suite
     for quantum simulation of materials; please cite
         "P. Giannozzi et al., J. Phys.:Condens. Matter 21 395502 (2009);
         "P. Giannozzi et al., J. Phys.:Condens. Matter 29 465901 (2017);
          URL http://www.quantum-espresso.org", 
     in publications or presentations arising from this work. More details at
     http://www.quantum-espresso.org/quote

     Parallel version (MPI & OpenMP), running on      16 processor cores
     Number of MPI processes:                16
     Threads/MPI process:                     1

     MPI processes distributed on     2 nodes
     R & G space division:  proc/nbgrp/npool/nimage =      16
     Fft bands division:     nmany     =       1
     Waiting for input...
     Reading input from standard input

     Current dimensions of program PWSCF are:
     Max number of different atomic species (ntypx) = 10
     Max number of k-points (npk) =  40000
     Max angular momentum in pseudopotentials (lmaxx) =  3

     IMPORTANT: XC functional enforced from input :
     Exchange-correlation= PBE
                           (   1   4   3   4   0   0   0)
     Any further DFT definition will be discarded
     Please, verify this is what you really want


     --------------------------------------------
     Parameters for DFT-D3 Dispersion Correction:
     --------------------------------------------
       Reference C6 values for interpolation: 

         atom   Coordination number   C6
         O          0.000            31.01
         O          0.993            25.63
         O          1.989            20.74
         Mg         0.000          1366.75
         Mg         0.963           902.54
         Mg         1.950           351.12

       Values used:

         atom   Coordination number  R0_AB[au]  C6      C8
         Mg        15.938            3.292    351.12  31436.69
         Mg        15.938            3.292    351.12  31436.69
         Mg        15.938            3.292    351.12  31436.69
         Mg        15.938            3.292    351.12  31436.69
         O          5.684            2.345     20.74    418.58
         O          5.684            2.345     20.74    418.58
         O          5.684            2.345     20.74    418.58
         O          5.684            2.345     20.74    418.58

         Molecular C6 ( Ry / a.u.^6 ) =      8251.69


     Subspace diagonalization in iterative solution of the eigenvalue problem:
     a serial algorithm will be used

     Found symmetry operation: I + (  0.0000 -0.5000 -0.5000)
     This is a supercell, fractional translations are disabled
     Message from routine setup:
     using ibrav=0 with symmetry is DISCOURAGED, use correct ibrav instead
 
     Parallelization info
     --------------------
     sticks:   dense  smooth     PW     G-vecs:    dense   smooth      PW
     Min         132     132     36                 4470     4470     650
     Max         133     133     37                 4473     4473     653
     Sum        2119    2119    587                71549    71549   10421
 


     bravais-lattice index     =            0
     lattice parameter (alat)  =       8.3555  a.u.
     unit-cell volume          =     529.1047 (a.u.)^3
     number of atoms/cell      =            8
     number of atomic types    =            2
     number of electrons       =        64.00
     number of Kohn-Sham states=           38
     kinetic-energy cutoff     =     100.0000  Ry
     charge density cutoff     =     400.0000  Ry
     convergence threshold     =      1.0E-06
     mixing beta               =       0.5000
     number of iterations used =            8  plain     mixing
     Exchange-correlation= PBE
                           (   1   4   3   4   0   0   0)
     nstep                     =          100


     celldm(1)=   8.355519  celldm(2)=   0.000000  celldm(3)=   0.000000
     celldm(4)=   0.000000  celldm(5)=   0.000000  celldm(6)=   0.000000

     crystal axes: (cart. coord. in units of alat)
               a(1) = (   1.000000   0.000000   0.000000 )  
               a(2) = (   0.000000   0.952381   0.000000 )  
               a(3) = (   0.000000   0.000000   0.952381 )  

     reciprocal axes: (cart. coord. in units 2 pi/alat)
               b(1) = (  1.000000  0.000000  0.000000 )  
               b(2) = (  0.000000  1.050000  0.000000 )  
               b(3) = (  0.000000  0.000000  1.050000 )  


     PseudoPot. # 1 for Mg read from file:
     ./Mg.upf
     MD5 check sum: 4c04d8c6e0476e83eaecaf72fa8acc4d
     Pseudo is Norm-conserving, Zval = 10.0
     Generated using ONCVPSP code by D. R. Hamann
     Using radial grid of 1510 points,  4 beta functions with: 
                l(1) =   0
                l(2) =   0
                l(3) =   1
                l(4) =   1

     PseudoPot. # 2 for O  read from file:
     ./O.upf
     MD5 check sum: 3e3f909f7470e8921608ab6b1f57bbae
     Pseudo is Norm-conserving + core correction, Zval =  6.0
     Generated using ONCVPSP code by D. R. Hamann
     Using radial grid of  936 points,  5 beta functions with: 
                l(1) =   0
                l(2) =   0
                l(3) =   1
                l(4) =   1
                l(5) =   2

     atomic species   valence    mass     pseudopotential
        Mg            10.00    24.30500     Mg( 1.00)
        O              6.00    15.99900     O ( 1.00)

     16 Sym. Ops., with inversion, found



   Cartesian axes

     site n.     atom                  positions (alat units)
         1           Mg  tau(   1) = (   0.0000000   0.0000000   0.0000000  )
         2           Mg  tau(   2) = (   0.0000000   0.4761905   0.4761905  )
         3           Mg  tau(   3) = (   0.5000000   0.0000000   0.4761905  )
         4           Mg  tau(   4) = (   0.5000000   0.4761905   0.0000000  )
         5           O   tau(   5) = (   0.5000000   0.4761905   0.4761905  )
         6           O   tau(   6) = (   0.5000000   0.0000000   0.0000000  )
         7           O   tau(   7) = (   0.0000000   0.4761905   0.0000000  )
         8           O   tau(   8) = (   0.0000000   0.0000000   0.4761905  )

     number of k points=    18  Gaussian smearing, width (Ry)=  0.0050
                       cart. coord. in units 2pi/alat
        k(    1) = (   0.0000000   0.0000000   0.0000000), wk =   0.0160000
        k(    2) = (   0.0000000   0.0000000   0.2100000), wk =   0.0640000
        k(    3) = (   0.0000000   0.0000000   0.4200000), wk =   0.0640000
        k(    4) = (   0.0000000   0.2100000   0.2100000), wk =   0.0640000
        k(    5) = (   0.0000000   0.2100000   0.4200000), wk =   0.1280000
        k(    6) = (   0.0000000   0.4200000   0.4200000), wk =   0.0640000
        k(    7) = (   0.2000000   0.0000000   0.0000000), wk =   0.0320000
        k(    8) = (   0.2000000   0.0000000   0.2100000), wk =   0.1280000
        k(    9) = (   0.2000000   0.0000000   0.4200000), wk =   0.1280000
        k(   10) = (   0.2000000   0.2100000   0.2100000), wk =   0.1280000
        k(   11) = (   0.2000000   0.2100000   0.4200000), wk =   0.2560000
        k(   12) = (   0.2000000   0.4200000   0.4200000), wk =   0.1280000
        k(   13) = (   0.4000000   0.0000000   0.0000000), wk =   0.0320000
        k(   14) = (   0.4000000   0.0000000   0.2100000), wk =   0.1280000
        k(   15) = (   0.4000000   0.0000000   0.4200000), wk =   0.1280000
        k(   16) = (   0.4000000   0.2100000   0.2100000), wk =   0.1280000
        k(   17) = (   0.4000000   0.2100000   0.4200000), wk =   0.2560000
        k(   18) = (   0.4000000   0.4200000   0.4200000), wk =   0.1280000

     Dense  grid:    71549 G-vectors     FFT dimensions: (  54,  54,  54)

     Estimated max dynamical RAM per process >      13.56 MB

     Estimated total dynamical RAM >     216.96 MB

     Initial potential from superposition of free atoms

     starting charge   63.99678, renormalised to   64.00000
     Starting wfcs are   36 randomized atomic wfcs +    2 random wfcs

     total cpu time spent up to now is        1.0 secs

     Self-consistent Calculation

     iteration #  1     ecut=   100.00 Ry     beta= 0.50
     Davidson diagonalization with overlap
     ethr =  1.00E-02,  avg # of iterations =  4.0

     total cpu time spent up to now is        5.6 secs

     total energy              =    -608.00352078 Ry
     estimated scf accuracy    <       1.60832280 Ry

     iteration #  2     ecut=   100.00 Ry     beta= 0.50
     Davidson diagonalization with overlap
     ethr =  2.51E-03,  avg # of iterations =  2.0

     total cpu time spent up to now is        6.7 secs

     total energy              =    -608.46474474 Ry
     estimated scf accuracy    <       0.28275090 Ry

     iteration #  3     ecut=   100.00 Ry     beta= 0.50
     Davidson diagonalization with overlap
     ethr =  4.42E-04,  avg # of iterations =  3.1

     total cpu time spent up to now is        7.8 secs

     total energy              =    -608.50669348 Ry
     estimated scf accuracy    <       0.01363653 Ry

     iteration #  4     ecut=   100.00 Ry     beta= 0.50
     Davidson diagonalization with overlap
     ethr =  2.13E-05,  avg # of iterations =  3.8

     total cpu time spent up to now is        9.1 secs

     total energy              =    -608.50738644 Ry
     estimated scf accuracy    <       0.00189827 Ry

     iteration #  5     ecut=   100.00 Ry     beta= 0.50
     Davidson diagonalization with overlap
     ethr =  2.97E-06,  avg # of iterations =  5.6

     total cpu time spent up to now is       10.7 secs

     total energy              =    -608.50781014 Ry
     estimated scf accuracy    <       0.00004554 Ry

     iteration #  6     ecut=   100.00 Ry     beta= 0.50
     Davidson diagonalization with overlap
     ethr =  7.12E-08,  avg # of iterations =  2.2

     total cpu time spent up to now is       12.2 secs

     total energy              =    -608.50782181 Ry
     estimated scf accuracy    <       0.00000182 Ry

     iteration #  7     ecut=   100.00 Ry     beta= 0.50
     Davidson diagonalization with overlap
     ethr =  2.85E-09,  avg # of iterations =  2.1

     total cpu time spent up to now is       13.6 secs

     total energy              =    -608.50782118 Ry
     estimated scf accuracy    <       0.00000205 Ry

     iteration #  8     ecut=   100.00 Ry     beta= 0.50
     Davidson diagonalization with overlap
     ethr =  2.85E-09,  avg # of iterations =  2.4

     total cpu time spent up to now is       15.0 secs

     End of self-consistent calculation

          k = 0.0000 0.0000 0.0000 (  8947 PWs)   bands (ev):

   -65.0395 -65.0316 -65.0299 -65.0299 -31.8697 -31.8401 -31.8401 -31.8337
   -31.8337 -31.8125 -31.8088 -31.8088 -31.7988 -31.7988 -31.7787 -31.7787
    -9.4855  -8.1672  -8.0376  -8.0375   3.5288   3.6754   3.6754   5.9910
     5.9910   6.2960   6.2960   6.3306   6.3306   7.4376   7.4376   7.5367
    11.7735  16.4913  16.4913  16.9705  16.9705  16.9708

          k = 0.0000 0.0000 0.2100 (  8947 PWs)   bands (ev):

   -65.0386 -65.0314 -65.0308 -65.0301 -31.8663 -31.8371 -31.8361 -31.8350
   -31.8317 -31.8145 -31.8085 -31.8059 -31.8027 -31.8004 -31.7854 -31.7816
    -9.3477  -8.1740  -8.1333  -8.0278   3.7241   3.8646   3.8655   5.8692
     5.9230   5.9773   6.1072   6.1379   6.3983   6.7376   7.2720   7.3987
    12.6013  16.8226  16.8236  16.9955  17.4918  17.5411

          k = 0.0000 0.0000 0.4200 (  8934 PWs)   bands (ev):

   -65.0362 -65.0332 -65.0310 -65.0305 -31.8572 -31.8461 -31.8263 -31.8257
   -31.8209 -31.8198 -31.8130 -31.8071 -31.8040 -31.8020 -31.7984 -31.7891
    -8.9849  -8.5353  -8.0653  -8.0245   4.2830   4.4049   4.4732   5.1010
     5.1922   5.5016   5.7123   5.8118   6.4297   6.6800   6.8712   7.0601
    14.2318  15.8497  17.8123  18.0438  18.5997  18.8017

          k = 0.0000 0.2100 0.2100 (  8952 PWs)   bands (ev):

   -65.0378 -65.0314 -65.0309 -65.0309 -31.8629 -31.8349 -31.8349 -31.8343
   -31.8343 -31.8167 -31.8124 -31.8036 -31.8036 -31.7963 -31.7950 -31.7788
    -9.2180  -8.1470  -8.1469  -8.1138   3.9152   3.9382   3.9382   5.3038
     6.0435   6.0436   6.0653   6.0741   6.0742   6.4488   7.2327   7.3503
    13.1853  17.2659  17.2868  17.2868  17.4605  18.4082

          k = 0.0000 0.2100 0.4200 (  8926 PWs)   bands (ev):

   -65.0356 -65.0330 -65.0312 -65.0310 -31.8542 -31.8435 -31.8310 -31.8293
   -31.8268 -31.8234 -31.8223 -31.8127 -31.7985 -31.7945 -31.7929 -31.7830
    -8.8800  -8.4689  -8.0987  -8.0859   4.1592   4.2963   4.4605   4.6000
     5.0576   5.2539   6.1297   6.3556   6.3763   6.5491   6.8277   7.0586
    14.5614  16.1396  18.0562  18.1138  18.1665  18.1851

          k = 0.0000 0.4200 0.4200 (  8930 PWs)   bands (ev):

   -65.0342 -65.0324 -65.0324 -65.0318 -31.8465 -31.8369 -31.8369 -31.8334
   -31.8334 -31.8325 -31.8288 -31.8264 -31.7870 -31.7868 -31.7868 -31.7808
    -8.6153  -8.3142  -8.3141  -8.1661   4.0369   4.0369   4.0915   4.3838
     4.9629   5.6814   5.6814   6.2759   6.7461   6.7461   6.7505   7.0986
    15.4754  16.7883  16.7883  17.4569  18.4944  18.7879

          k = 0.2000 0.0000 0.0000 (  8951 PWs)   bands (ev):

   -65.0388 -65.0324 -65.0299 -65.0299 -31.8647 -31.8371 -31.8371 -31.8340
   -31.8340 -31.8184 -31.8118 -31.8118 -31.7968 -31.7968 -31.7807 -31.7807
    -9.3653  -8.2990  -8.0245  -8.0244   3.7670   3.8436   3.8436   5.6899
     5.6899   6.1793   6.1793   6.4227   6.4227   6.8300   7.3155   7.3155
    12.6019  16.8433  17.0131  17.0131  17.2675  17.5057

          k = 0.2000 0.0000 0.2100 (  8939 PWs)   bands (ev):

   -65.0379 -65.0321 -65.0307 -65.0301 -31.8624 -31.8390 -31.8384 -31.8332
   -31.8260 -31.8211 -31.8095 -31.8088 -31.8007 -31.7983 -31.7856 -31.7836
    -9.2344  -8.2513  -8.1465  -8.0277   3.8785   3.9480   4.0291   5.2392
     5.8194   6.0838   6.1807   6.2889   6.2944   6.3390   7.1273   7.3760
    13.1969  17.0835  17.2485  17.3006  17.3077  17.7389

          k = 0.2000 0.0000 0.4200 (  8958 PWs)   bands (ev):

   -65.0357 -65.0330 -65.0315 -65.0307 -31.8561 -31.8474 -31.8355 -31.8280
   -31.8231 -31.8126 -31.8107 -31.8056 -31.8017 -31.8010 -31.7978 -31.7914
    -8.8925  -8.4751  -8.1464  -8.0601   4.1778   4.3610   4.5579   4.6305
     5.1633   5.3249   6.1266   6.1795   6.1981   6.6747   6.7184   7.1324
    14.5653  16.1141  17.6911  18.0159  18.1428  18.7130

          k = 0.2000 0.2100 0.2100 (  8941 PWs)   bands (ev):

   -65.0372 -65.0320 -65.0309 -65.0309 -31.8606 -31.8425 -31.8425 -31.8257
   -31.8257 -31.8247 -31.8091 -31.8050 -31.8050 -31.7946 -31.7935 -31.7804
    -9.1122  -8.2174  -8.1321  -8.1320   3.9182   3.9425   3.9425   5.5695
     5.6113   5.6113   5.6178   6.3861   6.3862   6.5257   7.2537   7.2588
    13.5959  16.9956  16.9956  17.1975  18.1345  18.1345

          k = 0.2000 0.2100 0.4200 (  8938 PWs)   bands (ev):

   -65.0352 -65.0328 -65.0316 -65.0312 -31.8559 -31.8494 -31.8412 -31.8334
   -31.8236 -31.8181 -31.8161 -31.8058 -31.7981 -31.7943 -31.7933 -31.7842
    -8.7965  -8.4197  -8.1517  -8.1187   3.9162   3.9340   4.0754   4.6681
     5.3392   5.4110   6.3213   6.3569   6.4598   6.6381   6.9473   6.9978
    14.6797  16.0598  17.2573  17.3771  18.4730  18.9561

          k = 0.2000 0.4200 0.4200 (  8922 PWs)   bands (ev):

   -65.0340 -65.0324 -65.0324 -65.0320 -31.8548 -31.8502 -31.8502 -31.8439
   -31.8222 -31.8203 -31.8203 -31.8139 -31.7870 -31.7870 -31.7864 -31.7814
    -8.5582  -8.2966  -8.2965  -8.1928   3.6116   3.6696   3.6696   3.9718
     5.6437   6.0978   6.0978   6.6246   6.7566   6.7567   6.7825   7.0641
    15.1971  16.1867  16.1867  16.6355  18.9706  19.1992

          k = 0.4000 0.0000 0.0000 (  8930 PWs)   bands (ev):

   -65.0368 -65.0343 -65.0299 -65.0299 -31.8510 -31.8345 -31.8345 -31.8333
   -31.8293 -31.8293 -31.8196 -31.8196 -31.7918 -31.7918 -31.7856 -31.7856
    -9.0452  -8.6380  -8.0031  -8.0031   4.3216   4.3216   4.4701   5.0117
     5.0117   5.5678   5.9987   5.9987   6.6754   6.6754   7.0147   7.0147
    14.2226  15.8287  18.1978  18.2000  18.7034  18.7034

          k = 0.4000 0.0000 0.2100 (  8928 PWs)   bands (ev):

   -65.0361 -65.0339 -65.0306 -65.0303 -31.8514 -31.8414 -31.8408 -31.8359
   -31.8257 -31.8188 -31.8163 -31.8129 -31.7954 -31.7932 -31.7889 -31.7881
    -8.9348  -8.5588  -8.0876  -8.0419   4.1917   4.3743   4.4958   4.6190
     5.1660   5.2063   6.2879   6.3414   6.3770   6.6628   6.7733   7.0909
    14.5683  16.1223  17.7518  18.0203  18.3662  19.1249

          k = 0.4000 0.0000 0.4200 (  8943 PWs)   bands (ev):

   -65.0344 -65.0328 -65.0323 -65.0314 -31.8513 -31.8481 -31.8443 -31.8412
   -31.8163 -31.8078 -31.8058 -31.8047 -31.8038 -31.7973 -31.7972 -31.7951
    -8.6536  -8.3673  -8.3274  -8.1678   4.1841   4.1993   4.2286   4.5754
     4.9890   5.5987   5.6944   6.2049   6.6368   6.6766   6.7625   7.0583
    15.4631  16.6855  16.7054  17.2143  18.8044  19.0019

          k = 0.4000 0.2100 0.2100 (  8940 PWs)   bands (ev):

   -65.0356 -65.0336 -65.0309 -65.0309 -31.8528 -31.8473 -31.8473 -31.8395
   -31.8176 -31.8176 -31.8088 -31.8088 -31.8019 -31.7959 -31.7894 -31.7844
    -8.8345  -8.4919  -8.1078  -8.1077   3.9283   3.9283   4.1473   4.7492
     5.3567   5.3567   6.2827   6.4616   6.4616   6.7352   6.9318   7.0124
    14.6906  16.0861  17.2350  17.2350  18.9419  18.9419

          k = 0.4000 0.2100 0.4200 (  8936 PWs)   bands (ev):

   -65.0341 -65.0327 -65.0323 -65.0317 -31.8550 -31.8538 -31.8509 -31.8470
   -31.8141 -31.8103 -31.8089 -31.8034 -31.7976 -31.7969 -31.7904 -31.7871
    -8.5837  -8.3359  -8.3033  -8.1874   3.6546   3.7314   3.7619   4.0624
     5.7320   6.0835   6.0951   6.6300   6.6763   6.7395   6.7585   7.0195
    15.2005  16.1481  16.1917  16.5501  19.0970  19.3011

          k = 0.4000 0.4200 0.4200 (  8919 PWs)   bands (ev):

   -65.0334 -65.0326 -65.0324 -65.0324 -31.8604 -31.8595 -31.8595 -31.8565
   -31.8112 -31.8112 -31.8111 -31.8078 -31.7872 -31.7872 -31.7848 -31.7829
    -8.4212  -8.2804  -8.2678  -8.2677   3.2526   3.2526   3.2675   3.4219
     6.5024   6.5900   6.5901   6.7840   6.7841   6.8675   6.8902   6.9750
    15.0126  15.5252  15.5252  15.5484  19.4074  19.4077

     the Fermi energy is     8.9538 ev

!    total energy              =    -608.50782136 Ry
     estimated scf accuracy    <       0.00000010 Ry
     smearing contrib. (-TS)   =      -0.00000000 Ry
     internal energy E=F+TS    =    -608.50782136 Ry

     The total energy is F=E-TS. E is the sum of the following terms:
     one-electron contribution =    -307.28970459 Ry
     hartree contribution      =     169.45431070 Ry
     xc contribution           =     -97.79839131 Ry
     ewald contribution        =    -372.77166131 Ry
     DFT-D3 Dispersion         =      -0.10237486 Ry

     convergence has been achieved in   8 iterations

     Forces acting on atoms (cartesian axes, Ry/au):

     atom    1 type  1   force =     0.00000000    0.00000000    0.00000000
     atom    2 type  1   force =     0.00000000    0.00000000    0.00000000
     atom    3 type  1   force =     0.00000000    0.00000000    0.00000000
     atom    4 type  1   force =     0.00000000    0.00000000    0.00000000
     atom    5 type  2   force =     0.00000000    0.00000000    0.00000000
     atom    6 type  2   force =     0.00000000    0.00000000    0.00000000
     atom    7 type  2   force =     0.00000000    0.00000000    0.00000000
     atom    8 type  2   force =     0.00000000    0.00000000    0.00000000

     Total force =     0.000000     Total SCF correction =     0.000000

     BFGS Geometry Optimization

     bfgs converged in   1 scf cycles and   0 bfgs steps
     (criteria: energy <  1.0E-04 Ry, force <  1.0E-03 Ry/Bohr)

     End of BFGS Geometry Optimization

     Final energy   =    -608.5078213597 Ry
Begin final coordinates

ATOMIC_POSITIONS (angstrom)
Mg            0.0000000000        0.0000000000        0.0000000000
Mg            0.0000000000        2.1055000000        2.1055000000
Mg            2.2107750000        0.0000000000        2.1055000000
Mg            2.2107750000        2.1055000000        0.0000000000
O             2.2107750000        2.1055000000        2.1055000000
O             2.2107750000        0.0000000000        0.0000000000
O             0.0000000000        2.1055000000        0.0000000000
O             0.0000000000        0.0000000000        2.1055000000
End final coordinates


 
     init_run     :      0.76s CPU      0.79s WALL (       1 calls)
     electrons    :     13.85s CPU     14.08s WALL (       1 calls)
     forces       :      4.72s CPU      4.73s WALL (       1 calls)

     Called by init_run:
     wfcinit      :      0.46s CPU      0.48s WALL (       1 calls)
     potinit      :      0.09s CPU      0.10s WALL (       1 calls)
     hinit0       :      0.16s CPU      0.16s WALL (       1 calls)

     Called by electrons:
     c_bands      :      8.88s CPU      9.06s WALL (       8 calls)
     sum_band     :      1.52s CPU      1.55s WALL (       8 calls)
     v_of_rho     :      0.08s CPU      0.08s WALL (       9 calls)
     mix_rho      :      0.01s CPU      0.01s WALL (       8 calls)

     Called by c_bands:
     init_us_2    :      0.09s CPU      0.10s WALL (     324 calls)
     cegterg      :      8.57s CPU      8.72s WALL (     144 calls)

     Called by *egterg:
     cdiaghg      :      1.02s CPU      1.03s WALL (     599 calls)
     h_psi        :      7.26s CPU      7.41s WALL (     617 calls)
     g_psi        :      0.02s CPU      0.02s WALL (     455 calls)

     Called by h_psi:
     h_psi:calbec :      0.24s CPU      0.24s WALL (     617 calls)
     vloc_psi     :      6.84s CPU      6.99s WALL (     617 calls)
     add_vuspsi   :      0.15s CPU      0.15s WALL (     617 calls)

     General routines
     calbec       :      0.32s CPU      0.32s WALL (     689 calls)
     fft          :      0.92s CPU      0.93s WALL (     100 calls)
     ffts         :      0.00s CPU      0.00s WALL (       8 calls)
     fftw         :      7.88s CPU      8.05s WALL (   33538 calls)
 
     Parallel routines
     fft_scatt_xy :      0.93s CPU      0.95s WALL (   33646 calls)
     fft_scatt_yz :      5.44s CPU      5.54s WALL (   33646 calls)
 
     PWSCF        :     19.48s CPU     19.77s WALL

 
   This run was terminated on:  13:34:10   4Feb2024            

=------------------------------------------------------------------------------=
   JOB DONE.
=------------------------------------------------------------------------------=
