# total energy = -38089.852093 eV	

CRYSTAL	
PRIMVEC	
		5.69210074		0.00000000		0.68305071	
		0.00000000		11.46000237		0.00000000	
		0.99035904		0.00000000		8.25299772	
PRIMCOORD
   58 1	
O		2.51905686		1.40843400		8.37869178		-0.00056223		-0.00005315		 0.00065773	
O		4.16340292		10.05156550		0.55736124		 0.00056223		 0.00005315		-0.00065773	
O		5.13969964		4.32156604		8.69316857		-0.00043159		 0.00013436		-0.00018557	
O		1.54276014		7.13843404		0.24288388		 0.00043159		-0.00013436		 0.00018557	
O		1.54276014		10.05156550		0.24288388		 0.00043159		 0.00013436		 0.00018557	
O		5.13969964		1.40843400		8.69316857		-0.00043159		-0.00013436		-0.00018557	
O		4.16340292		7.13843404		0.55736124		 0.00056223		-0.00005315		-0.00065773	
O		2.51905686		4.32156604		8.37869178		-0.00056223		 0.00005315		 0.00065773	
O		3.59436598		5.60966972		6.57749258		-0.00002633		 0.00013128		 0.00039040	
O		3.08809380		5.85032979		2.35855872		 0.00002633		-0.00013128		-0.00039040	
O		3.59436598		0.12032975		6.57749258		-0.00002633		-0.00013128		 0.00039040	
O		3.08809380		11.33966975		2.35855872		 0.00002633		 0.00013128		-0.00039040	
O		0.70989003		2.86500002		5.91575005		 0.00058990		0.00000000		 0.00062670	
O		0.28047016		8.59499948		2.33724997		-0.00058990		0.00000000		-0.00062670	
O		0.21659206		2.86500002		1.80493077		 0.00051762		-0.00000000		 0.00000479	
O		0.77376813		8.59499948		6.44806867		-0.00051762		-0.00000000		-0.00000479	
O		3.55782195		8.59499948		6.27295670		 0.00052792		0.00000000		 0.00016868	
O		3.12463783		2.86500002		2.66309517		-0.00052792		0.00000000		-0.00016868	
O		3.06075973		8.59499948		2.13077597		 0.00046405		0.00000000		 0.00000530	
O		3.62170005		2.86500002		6.80527590		-0.00046405		0.00000000		-0.00000530	
O		0.25313609		11.33966975		2.10946722		 0.00069968		 0.00031223		 0.00005190	
O		0.73722410		0.12032975		6.14353394		-0.00069968		-0.00031223		-0.00005190	
O		0.25313609		5.85032979		2.10946722		 0.00069968		-0.00031223		 0.00005190	
O		0.73722410		5.60966972		6.14353394		-0.00069968		 0.00031223		-0.00005190	
O		4.86992657		7.13843404		4.59371713		-0.00019316		-0.00024795		-0.00000380	
O		1.81253321		4.32156604		4.34233474		 0.00019316		 0.00024795		 0.00000380	
O		1.79846975		10.05156550		4.22514263		-0.00078414		-0.00003880		-0.00013587	
O		4.88399003		1.40843400		4.71090982		 0.00078414		 0.00003880		 0.00013587	
O		4.88399003		4.32156604		4.71090982		 0.00078414		-0.00003880		 0.00013587	
O		1.79846975		7.13843404		4.22514263		-0.00078414		 0.00003880		-0.00013587	
O		1.81253321		1.40843400		4.34233474		 0.00019316		-0.00024795		 0.00000380	
O		4.86992657		10.05156550		4.59371713		-0.00019316		 0.00024795		-0.00000380	
H		3.43184812		8.59499948		5.22317578		-0.00036004		0.00000000		 0.00029473	
H		3.25061166		2.86500002		3.71287667		 0.00036004		0.00000000		-0.00029473	
H		0.34256588		2.86500002		2.85471284		-0.00000597		0.00000000		-0.00059632	
H		0.64779373		8.59499948		5.39828660		 0.00000597		0.00000000		 0.00059632	
Mg		3.34122989		5.73000004		4.46802594		0.00000000		0.00000000		0.00000000	
Mg		3.34122989		0.00000000		4.46802594		0.00000000		-0.00000000		0.00000000	
Mg		0.00000000		0.00000000		0.00000000		0.00000000		0.00000000		0.00000000	
Mg		0.00000000		5.73000004		0.00000000		-0.00000000		0.00000000		0.00000000	
Mg		1.67061495		1.44854392		2.23401297		 0.00029381		-0.00029201		 0.00010120	
Mg		5.01184484		10.01145558		6.70203890		-0.00029381		 0.00029201		-0.00010120	
Mg		4.51666474		4.28145612		2.57553890		-0.00023167		-0.00022476		-0.00003363	
Mg		2.16579504		7.17854396		6.36051297		 0.00023167		 0.00022476		 0.00003363	
Mg		2.16579504		10.01145558		6.36051297		 0.00023167		-0.00022476		 0.00003363	
Mg		4.51666474		1.44854392		2.57553890		-0.00023167		 0.00022476		-0.00003363	
Mg		5.01184484		7.17854396		6.70203890		-0.00029381		-0.00029201		-0.00010120	
Mg		1.67061495		4.28145612		2.23401297		 0.00029381		 0.00029201		 0.00010120	
Mg		0.96074785		2.86500002		8.00623494		 0.00037968		0.00000000		-0.00077107	
Mg		0.02961176		8.59499948		0.24676508		-0.00037968		0.00000000		 0.00077107	
Si		2.96152604		7.10634565		1.30382568		 0.00042892		 0.00000062		-0.00020261	
Si		3.72093374		4.35365385		7.63222676		-0.00042892		-0.00000062		 0.00020261	
Si		2.96152604		10.08365389		1.30382568		 0.00042892		-0.00000062		-0.00020261	
Si		3.72093374		1.37634618		7.63222676		-0.00042892		 0.00000062		 0.00020261	
Si		0.61065576		1.37634618		5.08879976		 0.00052464		-0.00001083		 0.00033919	
Si		0.37970385		10.08365389		3.16419968		-0.00052464		 0.00001083		-0.00033919	
Si		0.61065576		4.35365385		5.08879976		 0.00052464		 0.00001083		 0.00033919	
Si		0.37970385		7.10634565		3.16419968		-0.00052464		-0.00001083		-0.00033919	
