# total energy = -49438.1892059 eV	

CRYSTAL	
PRIMVEC	
		5.08940064		-0.61072685		0.00000000	
		-1.67615802		13.96799885		0.00000000	
		0.00000000		0.00000000		8.69559800	
PRIMCOORD
   70 1	
Si		2.54469981		-0.30536394		0.00000000		0.00000000		0.00000000		0.00000000	
Si		-0.83808003		6.98399994		4.34780002		0.00000000		0.00000000		0.00000000	
Si		1.84239085		4.96241180		0.00000000		-0.00063060		 0.00049927		0.00000000	
Si		1.57084871		8.39485969		0.00000000		 0.00063060		-0.00049927		0.00000000	
Si		-1.39798705		12.23468742		4.34780002		-0.00008553		-0.00032668		0.00000000	
Si		4.81122660		1.12258509		4.34780002		 0.00008553		 0.00032668		0.00000000	
Mg		0.57136496		2.32012384		0.00000000		-0.00005629		-0.00010384		-0.00000000	
Mg		2.84187510		11.03714764		0.00000000		 0.00005629		 0.00010384		-0.00000000	
Mg		0.55359394		9.20568780		4.34780002		-0.00016208		-0.00003467		0.00000000	
Mg		2.85964613		4.15158471		4.34780002		 0.00016208		 0.00003467		0.00000000	
Mg		0.26353188		4.42140505		2.81563504		 0.00011921		-0.00057348		-0.00002329	
Mg		3.14970768		8.93586746		5.87996501		-0.00011921		 0.00057348		 0.00002329	
Mg		3.14970768		8.93586746		2.81563504		-0.00011921		 0.00057348		-0.00002329	
Mg		0.26353188		4.42140505		5.87996501		 0.00011921		-0.00057348		 0.00002329	
Mg		0.35874621		11.29340944		1.53216498		 0.00061766		-0.00016346		 0.00013573	
Mg		3.05449283		2.06386205		7.16343455		-0.00061766		 0.00016346		-0.00013573	
Mg		3.05449283		2.06386205		1.53216498		-0.00061766		 0.00016346		 0.00013573	
Mg		0.35874621		11.29340944		7.16343455		 0.00061766		-0.00016346		-0.00013573	
Mg		1.70661978		6.67863600		2.79363514		0.00000000		0.00000000		 0.00013967	
Mg		1.70661978		6.67863600		5.90196389		0.00000000		0.00000000		-0.00013967	
Mg		0.00000000		0.00000000		1.55416489		0.00000000		0.00000000		 0.00079176	
Mg		0.00000000		0.00000000		7.14143465		0.00000000		0.00000000		-0.00079176	
Mg		2.54469981		-0.30536394		2.97293905		0.00000000		0.00000000		 0.00027948	
Mg		2.54469981		-0.30536394		5.72266100		0.00000000		0.00000000		-0.00027948	
Mg		-0.83808003		6.98399994		1.37486098		0.00000000		0.00000000		-0.00009207	
Mg		-0.83808003		6.98399994		7.32073753		0.00000000		0.00000000		 0.00009207	
O		0.99819406		5.56840794		1.35755692		-0.00024796		 0.00014955		 0.00037297	
O		2.41504600		7.78886354		7.33804261		 0.00024796		-0.00014955		-0.00037297	
O		2.41504600		7.78886354		1.35755692		 0.00024796		-0.00014955		 0.00037297	
O		0.99819406		5.56840794		7.33804261		-0.00024796		 0.00014955		-0.00037297	
O		-0.67668504		12.65282348		2.99024310		-0.00055651		 0.00026271		 0.00000692	
O		4.08992510		0.70444801		5.70535695		 0.00055651		-0.00026271		-0.00000692	
O		4.08992510		0.70444801		2.99024310		 0.00055651		-0.00026271		 0.00000692	
O		-0.67668504		12.65282348		5.70535695		-0.00055651		 0.00026271		-0.00000692	
O		2.07502116		3.31978084		0.00000000		 0.00013766		 0.00041608		0.00000000	
O		1.33821788		10.03749065		0.00000000		-0.00013766		-0.00041608		0.00000000	
O		-1.23742296		10.60070438		4.34780002		-0.00078870		-0.00005670		0.00000000	
O		4.65066303		2.75656813		4.34780002		 0.00078870		 0.00005670		0.00000000	
O		3.33303389		5.30640000		0.00000000		-0.00038678		 0.00034089		0.00000000	
O		0.08020618		8.05087251		0.00000000		 0.00038678		-0.00034089		0.00000000	
O		2.07344904		12.34098039		4.34780002		 0.00004928		-0.00032181		0.00000000	
O		1.33979000		1.01629212		4.34780002		-0.00004928		 0.00032181		0.00000000	
O		1.69138505		0.80297778		1.25773183		-0.00036272		 0.00013526		-0.00039417	
O		1.72185501		12.55429370		7.43786771		 0.00036272		-0.00013526		 0.00039417	
O		1.72185501		12.55429370		1.25773183		 0.00036272		-0.00013526		-0.00039417	
O		1.69138505		0.80297778		7.43786771		-0.00036272		 0.00013526		 0.00039417	
O		-0.22971879		7.91694062		3.09006768		 0.00004874		 0.00035540		 0.00003678	
O		3.64295886		5.44033087		5.60553083		-0.00004874		-0.00035540		-0.00003678	
O		3.64295886		5.44033087		3.09006768		-0.00004874		-0.00035540		 0.00003678	
O		-0.22971879		7.91694062		5.60553083		 0.00004874		 0.00035540		-0.00003678	
O		4.57844866		2.91776987		1.38433879		-0.00009738		-0.00030160		-0.00029958	
O		-1.16520911		10.43950161		7.31125972		 0.00009738		 0.00030160		 0.00029958	
O		-1.16520911		10.43950161		1.38433879		 0.00009738		 0.00030160		-0.00029958	
O		4.57844866		2.91776987		7.31125972		-0.00009738		-0.00030160		 0.00029958	
O		1.37328886		10.18581969		2.96345970		-0.00033326		-0.00079649		 0.00000707	
O		2.03995069		3.17145180		5.73213882		 0.00033326		 0.00079649		-0.00000707	
O		2.03995069		3.17145180		2.96345970		 0.00033326		 0.00079649		 0.00000707	
O		1.37328886		10.18581969		5.73213882		-0.00033326		-0.00079649		-0.00000707	
O		-0.54749820		12.74208766		0.00000000		 0.00014086		 0.00018779		0.00000000	
O		3.96073673		0.61518485		0.00000000		-0.00014086		-0.00018779		0.00000000	
O		0.84349505		5.69173791		4.34780002		 0.00036949		 0.00040106		0.00000000	
O		2.56974502		7.66553357		4.34780002		-0.00036949		-0.00040106		0.00000000	
H		4.19081895		3.66295402		0.94347290		 0.00008847		-0.00006622		 0.00005027	
H		-0.77757889		9.69431747		7.75212664		-0.00008847		 0.00006622		-0.00005027	
H		-0.77757889		9.69431747		0.94347290		-0.00008847		 0.00006622		 0.00005027	
H		4.19081895		3.66295402		7.75212664		 0.00008847		-0.00006622		-0.00005027	
H		1.59078902		10.85838862		3.40432713		 0.00022420		 0.00018861		 0.00025342	
H		1.82245105		2.49888389		5.29127189		-0.00022420		-0.00018861		-0.00025342	
H		1.82245105		2.49888389		3.40432713		-0.00022420		-0.00018861		 0.00025342	
H		1.59078902		10.85838862		5.29127189		 0.00022420		 0.00018861		-0.00025342	
