# total energy = -49446.8645573 eV	

CRYSTAL	
PRIMVEC	
		5.08940004		-0.20357580		0.00000000	
		-0.55871797		13.96800029		0.00000000	
		0.00000000		0.00000000		8.69560207	
PRIMCOORD
   70 1	
Si		2.54470002		-0.10178790		0.00000000		0.00000000		0.00000000		0.00000000	
Si		-0.27936001		6.98399964		4.34780002		0.00000000		0.00000000		0.00000000	
Si		2.26312996		5.16029197		0.00000000		-0.00014758		-0.00017480		0.00000000	
Si		2.26755007		8.60413151		0.00000000		 0.00014758		 0.00017480		0.00000000	
Si		-0.41852888		12.24038348		4.34780002		 0.00003332		-0.00024517		-0.00000000	
Si		4.94920789		1.52404102		4.34780002		-0.00003332		 0.00024517		-0.00000000	
Mg		0.76525206		2.38910012		0.00000000		 0.00000178		 0.00014533		0.00000000	
Mg		3.76542797		11.37532386		0.00000000		-0.00000178		-0.00014533		0.00000000	
Mg		1.30620096		9.34028763		4.34780002		 0.00016104		 0.00001114		0.00000000	
Mg		3.22447907		4.42413585		4.34780002		-0.00016104		-0.00001114		0.00000000	
Mg		0.62497892		4.48586106		2.81563492		 0.00001330		 0.00007686		-0.00014963	
Mg		3.90570111		9.27856293		5.87996461		-0.00001330		-0.00007686		 0.00014963	
Mg		3.90570111		9.27856293		2.81563492		-0.00001330		-0.00007686		-0.00014963	
Mg		0.62497892		4.48586106		5.87996461		 0.00001330		 0.00007686		 0.00014963	
Mg		1.27891320		11.43252862		1.53216510		-0.00020564		-0.00017746		-0.00036603	
Mg		3.25176581		2.33189486		7.16343494		 0.00020564		 0.00017746		 0.00036603	
Mg		3.25176581		2.33189486		1.53216510		 0.00020564		 0.00017746		-0.00036603	
Mg		1.27891320		11.43252862		7.16343494		-0.00020564		-0.00017746		 0.00036603	
Mg		2.26534001		6.88221174		2.79363469		0.00000000		0.00000000		-0.00038850	
Mg		2.26534001		6.88221174		5.90196381		0.00000000		0.00000000		 0.00038850	
Mg		0.00000000		0.00000000		1.55416481		0.00000000		0.00000000		 0.00040053	
Mg		0.00000000		0.00000000		7.14143471		0.00000000		0.00000000		-0.00040053	
Mg		2.54470002		-0.10178790		2.97293909		0.00000000		0.00000000		-0.00002909	
Mg		2.54470002		-0.10178790		5.72266095		0.00000000		0.00000000		 0.00002909	
Mg		-0.27936001		6.98399964		1.37486093		0.00000000		0.00000000		 0.00031114	
Mg		-0.27936001		6.98399964		7.32073758		0.00000000		0.00000000		-0.00031114	
O		1.45989793		5.70366791		1.35755688		-0.00017591		-0.00006977		-0.00019886	
O		3.07078210		8.06075557		7.33804264		 0.00017591		 0.00006977		 0.00019886	
O		3.07078210		8.06075557		1.35755688		 0.00017591		 0.00006977		-0.00019886	
O		1.45989793		5.70366791		7.33804264		-0.00017591		-0.00006977		 0.00019886	
O		0.34373790		12.72114081		2.99024314		 0.00034491		-0.00006115		 0.00018027	
O		4.18694111		1.04328420		5.70535690		-0.00034491		 0.00006115		-0.00018027	
O		4.18694111		1.04328420		2.99024314		-0.00034491		 0.00006115		 0.00018027	
O		0.34373790		12.72114081		5.70535690		 0.00034491		-0.00006115		-0.00018027	
O		2.36469476		3.52054311		0.00000000		 0.00023009		-0.00020281		0.00000000	
O		2.16598374		10.24388087		0.00000000		-0.00023009		 0.00020281		0.00000000	
O		-0.38902903		10.60351753		4.34780002		 0.00082865		-0.00030169		0.00000000	
O		4.91970906		3.16090595		4.34780002		-0.00082865		 0.00030169		0.00000000	
O		3.79621290		5.62862378		0.00000000		-0.00036523		 0.00043563		0.00000000	
O		0.73446713		8.13579970		0.00000000		 0.00036523		-0.00043563		0.00000000	
O		3.09534790		12.62948382		4.34780002		 0.00003049		-0.00017758		-0.00000000	
O		1.43533213		1.13494017		4.34780002		-0.00003049		 0.00017758		-0.00000000	
O		1.77303579		0.94808674		1.25773201		 0.00010711		 0.00006564		-0.00014489	
O		2.75764271		12.81633674		7.43786752		-0.00010711		-0.00006564		 0.00014489	
O		2.75764271		12.81633674		1.25773201		-0.00010711		-0.00006564		-0.00014489	
O		1.77303579		0.94808674		7.43786752		 0.00010711		 0.00006564		 0.00014489	
O		0.41065183		7.97540787		3.09006801		-0.00023229		-0.00014031		-0.00010378	
O		4.12002769		5.78901561		5.60553101		 0.00023229		 0.00014031		 0.00010378	
O		4.12002769		5.78901561		3.09006801		 0.00023229		 0.00014031		-0.00010378	
O		0.41065183		7.97540787		5.60553101		-0.00023229		-0.00014031		 0.00010378	
O		4.85987607		3.31781691		1.38433886		-0.00005746		 0.00026618		 0.00028124	
O		-0.32919604		10.44660657		7.31125965		 0.00005746		-0.00026618		-0.00028124	
O		-0.32919604		10.44660657		1.38433886		 0.00005746		-0.00026618		 0.00028124	
O		4.85987607		3.31781691		7.31125965		-0.00005746		 0.00026618		-0.00028124	
O		2.21343603		10.39650058		2.96346014		-0.00013814		 0.00036032		 0.00004998	
O		2.31724298		3.36792392		5.73213887		 0.00013814		-0.00036032		-0.00004998	
O		2.31724298		3.36792392		2.96346014		 0.00013814		-0.00036032		 0.00004998	
O		2.21343603		10.39650058		5.73213887		-0.00013814		 0.00036032		-0.00004998	
O		0.48143017		12.82175976		0.00000000		-0.00030475		-0.00021218		0.00000000	
O		4.04924986		0.94266474		0.00000000		 0.00030475		 0.00021218		0.00000000	
O		1.31370211		5.81564274		4.34780002		-0.00026919		-0.00023660		0.00000000	
O		3.21697792		7.94878175		4.34780002		 0.00026919		 0.00023660		0.00000000	
H		4.52895589		4.03879602		0.94347307		-0.00033171		 0.00003145		 0.00054447	
H		0.00172414		9.72562746		7.75212696		 0.00033171		-0.00003145		-0.00054447	
H		0.00172414		9.72562746		0.94347307		 0.00033171		-0.00003145		 0.00054447	
H		4.52895589		4.03879602		7.75212696		-0.00033171		 0.00003145		-0.00054447	
H		2.48764603		11.09327451		3.40432694		 0.00036324		 0.00018582		-0.00022333	
H		2.04303400		2.67114999		5.29127207		-0.00036324		-0.00018582		 0.00022333	
H		2.04303400		2.67114999		3.40432694		-0.00036324		-0.00018582		-0.00022333	
H		2.48764603		11.09327451		5.29127207		 0.00036324		 0.00018582		 0.00022333	
