# total energy = -49443.4589932 eV	

CRYSTAL	
PRIMVEC	
		5.08939832		0.40715084		0.00000000	
		1.11744003		13.96799784		0.00000000	
		0.00000000		0.00000000		8.69559735	
PRIMCOORD
   70 1	
Si		2.54469967		0.20357593		0.00000000		0.00000000		0.00000000		0.00000000	
Si		0.55872002		6.98399943		4.34779970		0.00000000		0.00000000		0.00000000	
Si		2.89423774		5.45711152		0.00000000		-0.00029491		-0.00048308		0.00000000	
Si		3.31260164		8.91803972		0.00000000		 0.00029491		 0.00048308		0.00000000	
Si		1.05065902		12.24892728		4.34779970		-0.00012244		 0.00010585		0.00000000	
Si		5.15617984		2.12622396		4.34779970		 0.00012244		-0.00010585		0.00000000	
Mg		1.05608174		2.49256272		0.00000000		 0.00007765		 0.00027332		0.00000000	
Mg		5.15075763		11.88258852		0.00000000		-0.00007765		-0.00027332		0.00000000	
Mg		2.43511179		9.54218877		4.34779970		 0.00000694		-0.00029727		0.00000000	
Mg		3.77172759		4.83296400		4.34779970		-0.00000694		 0.00029727		0.00000000	
Mg		1.16714976		4.58254568		2.81563509		 0.00021121		 0.00037882		-0.00031771	
Mg		5.03968962		9.79260658		5.87996482		-0.00021121		-0.00037882		 0.00031771	
Mg		5.03968962		9.79260658		2.81563509		-0.00021121		-0.00037882		-0.00031771	
Mg		1.16714976		4.58254568		5.87996482		 0.00021121		 0.00037882		 0.00031771	
Mg		2.65916397		11.64120824		1.53216512		-0.00034453		-0.00006368		-0.00025565	
Mg		3.54767592		2.73394300		7.16343478		 0.00034453		 0.00006368		 0.00025565	
Mg		3.54767592		2.73394300		1.53216512		 0.00034453		 0.00006368		-0.00025565	
Mg		2.65916397		11.64120824		7.16343478		-0.00034453		-0.00006368		 0.00025565	
Mg		3.10341969		7.18757588		2.79363480		0.00000000		0.00000000		-0.00017025	
Mg		3.10341969		7.18757588		5.90196358		0.00000000		0.00000000		 0.00017025	
Mg		0.00000000		0.00000000		1.55416490		0.00000000		0.00000000		-0.00012431	
Mg		0.00000000		0.00000000		7.14143450		0.00000000		0.00000000		 0.00012431	
Mg		2.54469967		0.20357593		2.97293893		0.00000000		0.00000000		 0.00056602	
Mg		2.54469967		0.20357593		5.72266046		0.00000000		0.00000000		-0.00056602	
Mg		0.55872002		6.98399943		1.37486076		0.00000000		0.00000000		-0.00062560	
Mg		0.55872002		6.98399943		7.32073761		0.00000000		0.00000000		 0.00062560	
O		2.15245276		5.90655765		1.35755717		 0.00023229		 0.00023202		-0.00012958	
O		4.05438560		8.46859359		7.33804273		-0.00023229		-0.00023202		 0.00012958	
O		4.05438560		8.46859359		1.35755717		-0.00023229		-0.00023202		-0.00012958	
O		2.15245276		5.90655765		7.33804273		 0.00023229		 0.00023202		 0.00012958	
O		1.87437402		12.82361422		2.99024304		-0.00005750		-0.00013598		-0.00024531	
O		4.33246587		1.55153804		5.70535687		 0.00005750		 0.00013598		 0.00024531	
O		4.33246587		1.55153804		2.99024304		 0.00005750		 0.00013598		-0.00024531	
O		1.87437402		12.82361422		5.70535687		-0.00005750		-0.00013598		 0.00024531	
O		2.79920609		3.82168698		0.00000000		 0.00074895		-0.00029981		0.00000000	
O		3.40763379		10.55346426		0.00000000		-0.00074895		 0.00029981		0.00000000	
O		0.88356201		10.60773845		4.34779970		-0.00052413		 0.00001021		0.00000000	
O		5.32327788		3.76741381		4.34779970		 0.00052413		-0.00001021		0.00000000	
O		4.49098078		6.11195988		0.00000000		-0.00017588		-0.00056763		0.00000000	
O		1.71585911		8.26319136		0.00000000		 0.00017588		 0.00056763		0.00000000	
O		4.62819692		13.06223949		4.34779970		-0.00000043		 0.00014549		0.00000000	
O		1.57864297		1.31291175		4.34779970		 0.00000043		-0.00014549		0.00000000	
O		1.89551400		1.16575081		1.25773182		-0.00023907		-0.00003718		-0.00005407	
O		4.31132589		13.20940146		7.43786757		 0.00023907		 0.00003718		 0.00005407	
O		4.31132589		13.20940146		1.25773182		 0.00023907		 0.00003718		-0.00005407	
O		1.89551400		1.16575081		7.43786757		-0.00023907		-0.00003718		 0.00005407	
O		1.37120869		8.06310872		3.09006788		 0.00064951		-0.00011503		 0.00049919	
O		4.83563069		6.31204354		5.60553050		-0.00064951		 0.00011503		-0.00049919	
O		4.83563069		6.31204354		3.09006788		-0.00064951		 0.00011503		 0.00049919	
O		1.37120869		8.06310872		5.60553050		 0.00064951		-0.00011503		-0.00049919	
O		5.28201649		3.91788782		1.38433891		 0.00020540		 0.00037017		-0.00014777	
O		0.92482289		10.45726342		7.31125946		-0.00020540		-0.00037017		 0.00014777	
O		0.92482289		10.45726342		1.38433891		-0.00020540		-0.00037017		-0.00014777	
O		5.28201649		3.91788782		7.31125946		 0.00020540		 0.00037017		 0.00014777	
O		3.47365661		10.71252139		2.96345977		-0.00006216		 0.00010598		 0.00003220	
O		2.73318276		3.66262985		5.73213861		 0.00006216		-0.00010598		-0.00003220	
O		2.73318276		3.66262985		2.96345977		 0.00006216		-0.00010598		 0.00003220	
O		3.47365661		10.71252139		5.73213861		-0.00006216		 0.00010598		-0.00003220	
O		2.02482096		12.94126650		0.00000000		-0.00035219		 0.00023859		0.00000000	
O		4.18201790		1.43388577		0.00000000		 0.00035219		-0.00023859		0.00000000	
O		2.01901379		6.00149995		4.34779970		 0.00008176		 0.00002192		0.00000000	
O		4.18782559		8.37365282		4.34779970		-0.00008176		-0.00002192		0.00000000	
H		5.03616161		4.60255885		0.94347284		 0.00024422		 0.00026891		 0.00010869	
H		1.17067675		9.77259239		7.75212655		-0.00024422		-0.00026891		-0.00010869	
H		1.17067675		9.77259239		0.94347284		-0.00024422		-0.00026891		 0.00010869	
H		5.03616161		4.60255885		7.75212655		 0.00024422		 0.00026891		-0.00010869	
H		3.83293168		11.44560225		3.40432686		 0.00026436		 0.00029322		-0.00016488	
H		2.37390769		2.92954899		5.29127152		-0.00026436		-0.00029322		 0.00016488	
H		2.37390769		2.92954899		3.40432686		-0.00026436		-0.00029322		-0.00016488	
H		3.83293168		11.44560225		5.29127152		 0.00026436		 0.00029322		 0.00016488	
