# total energy = -49446.8645573 eV	

CRYSTAL	
PRIMVEC	
		5.08940004		0.20357580		0.00000000	
		0.55871797		13.96800029		0.00000000	
		0.00000000		0.00000000		8.69560207	
PRIMCOORD
   70 1	
Si		2.54470002		0.10178790		0.00000000		0.00000000		0.00000000		0.00000000	
Si		0.27936001		6.98399964		4.34780002		0.00000000		0.00000000		0.00000000	
Si		2.68386788		5.35817174		0.00000000		-0.00003332		-0.00024516		-0.00000000	
Si		2.96425167		8.81340384		0.00000000		 0.00003332		 0.00024516		-0.00000000	
Si		0.56093007		12.24607951		4.34780002		 0.00014759		-0.00017480		0.00000000	
Si		5.08718998		1.92549709		4.34780002		-0.00014759		 0.00017480		0.00000000	
Mg		0.95913906		2.45807589		0.00000000		-0.00016103		 0.00001115		-0.00000000	
Mg		4.68898099		11.71350071		0.00000000		 0.00016103		-0.00001115		-0.00000000	
Mg		2.05880797		9.47488766		4.34780002		-0.00000177		 0.00014533		-0.00000000	
Mg		3.58931209		4.69668792		4.34780002		 0.00000177		-0.00014533		-0.00000000	
Mg		0.98642580		4.55031790		2.81563492		 0.00020563		-0.00017746		 0.00036603	
Mg		4.66169273		9.62125870		5.87996461		-0.00020563		 0.00017746		-0.00036603	
Mg		4.66169273		9.62125870		2.81563492		-0.00020563		 0.00017746		 0.00036603	
Mg		0.98642580		4.55031790		5.87996461		 0.00020563		-0.00017746		-0.00036603	
Mg		2.19908110		11.57164860		1.53216510		-0.00001329		 0.00007686		 0.00014964	
Mg		3.44903895		2.59992698		7.16343494		 0.00001329		-0.00007686		-0.00014964	
Mg		3.44903895		2.59992698		1.53216510		 0.00001329		-0.00007686		 0.00014964	
Mg		2.19908110		11.57164860		7.16343494		-0.00001329		 0.00007686		-0.00014964	
Mg		2.82406003		7.08578754		2.79363469		0.00000000		0.00000000		-0.00040055	
Mg		2.82406003		7.08578754		5.90196381		0.00000000		0.00000000		 0.00040055	
Mg		0.00000000		0.00000000		1.55416481		0.00000000		0.00000000		 0.00038848	
Mg		0.00000000		0.00000000		7.14143471		0.00000000		0.00000000		-0.00038848	
Mg		2.54470002		0.10178790		2.97293909		0.00000000		0.00000000		-0.00031115	
Mg		2.54470002		0.10178790		5.72266095		0.00000000		0.00000000		 0.00031115	
Mg		0.27936001		6.98399964		1.37486093		0.00000000		0.00000000		 0.00002909	
Mg		0.27936001		6.98399964		7.32073758		0.00000000		0.00000000		-0.00002909	
O		1.92160110		5.83892805		1.35755688		-0.00034492		-0.00006114		-0.00018028	
O		3.72651794		8.33264753		7.33804264		 0.00034492		 0.00006114		 0.00018028	
O		3.72651794		8.33264753		1.35755688		 0.00034492		 0.00006114		-0.00018028	
O		1.92160110		5.83892805		7.33804264		-0.00034492		-0.00006114		 0.00018028	
O		1.36416209		12.78945646		2.99024314		 0.00017592		-0.00006975		 0.00019885	
O		4.28395796		1.38212014		5.70535690		-0.00017592		 0.00006975		-0.00019885	
O		4.28395796		1.38212014		2.99024314		-0.00017592		 0.00006975		 0.00019885	
O		1.36416209		12.78945646		5.70535690		 0.00017592		-0.00006975		-0.00019885	
O		2.65436905		3.72130579		0.00000000		-0.00082865		-0.00030170		0.00000000	
O		2.99375101		10.45026979		0.00000000		 0.00082865		 0.00030170		0.00000000	
O		0.45936475		10.60633167		4.34780002		-0.00023011		-0.00020281		-0.00000000	
O		5.18875479		3.56524493		4.34780002		 0.00023011		 0.00020281		-0.00000000	
O		4.25939165		5.95084788		0.00000000		-0.00003049		-0.00017757		0.00000000	
O		1.38872790		8.22072770		0.00000000		 0.00003049		 0.00017757		0.00000000	
O		4.11724666		12.91798762		4.34780002		 0.00036523		 0.00043561		0.00000000	
O		1.53087289		1.25358796		4.34780002		-0.00036523		-0.00043561		0.00000000	
O		1.85468819		1.09319613		1.25773201		 0.00023229		-0.00014030		 0.00010377	
O		3.79343187		13.07837946		7.43786752		-0.00023229		 0.00014030		-0.00010377	
O		3.79343187		13.07837946		1.25773201		-0.00023229		 0.00014030		 0.00010377	
O		1.85468819		1.09319613		7.43786752		 0.00023229		-0.00014030		-0.00010377	
O		1.05102322		8.03387479		3.09006801		-0.00010712		 0.00006564		 0.00014487	
O		4.59709582		6.13770080		5.60553101		 0.00010712		-0.00006564		-0.00014487	
O		4.59709582		6.13770080		3.09006801		 0.00010712		-0.00006564		 0.00014487	
O		1.05102322		8.03387479		5.60553101		-0.00010712		 0.00006564		-0.00014487	
O		5.14130403		3.71786464		1.38433886		 0.00013813		 0.00036032		-0.00004998	
O		0.50681603		10.45371145		7.31125965		-0.00013813		-0.00036032		 0.00004998	
O		0.50681603		10.45371145		1.38433886		-0.00013813		-0.00036032		-0.00004998	
O		5.14130403		3.71786464		7.31125965		 0.00013813		 0.00036032		 0.00004998	
O		3.05358298		10.60718177		2.96346014		 0.00005747		 0.00026620		-0.00028123	
O		2.59453606		3.56439483		5.73213887		-0.00005747		-0.00026620		 0.00028123	
O		2.59453606		3.56439483		2.96346014		-0.00005747		-0.00026620		-0.00028123	
O		3.05358298		10.60718177		5.73213887		 0.00005747		 0.00026620		 0.00028123	
O		1.51035792		12.90143079		0.00000000		 0.00026918		-0.00023662		0.00000000	
O		4.13776163		1.27014581		0.00000000		-0.00026918		 0.00023662		0.00000000	
O		1.78390984		5.93954700		4.34780002		 0.00030474		-0.00021218		-0.00000000	
O		3.86420970		8.23202858		4.34780002		-0.00030474		 0.00021218		-0.00000000	
H		4.86709403		4.41463806		0.94347307		-0.00036324		 0.00018582		 0.00022333	
H		0.78102603		9.75693753		7.75212696		 0.00036324		-0.00018582		-0.00022333	
H		0.78102603		9.75693753		0.94347307		 0.00036324		-0.00018582		 0.00022333	
H		4.86709403		4.41463806		7.75212696		-0.00036324		 0.00018582		-0.00022333	
H		3.38450265		11.32815986		3.40432694		 0.00033171		 0.00003144		-0.00054448	
H		2.26361588		2.84341572		5.29127207		-0.00033171		-0.00003144		 0.00054448	
H		2.26361588		2.84341572		3.40432694		-0.00033171		-0.00003144		-0.00054448	
H		3.38450265		11.32815986		5.29127207		 0.00033171		 0.00003144		 0.00054448	
