# total energy = -21541.1030998 eV	

CRYSTAL	
PRIMVEC	
		5.18480002		0.20739179		0.00000000	
		0.35692165		8.92299974		0.00000000	
		-0.14877746		-0.11644514		9.18819639	
PRIMCOORD
   42 1	
Mg		0.00000000		0.00000000		0.00000000		0.00000000		0.00000000		0.00000000	
Mg		2.77085980		4.56519577		0.00000000		0.00000000		0.00000000		0.00000000	
Mg		2.65185911		1.59017896		0.00000000		-0.00019240		-0.00000709		-0.00039798	
Mg		2.88986101		7.54021361		0.00000000		 0.00019240		 0.00000709		 0.00039798	
Mg		0.23791888		5.94798293		0.00000000		-0.00019277		 0.00005094		-0.00039414	
Mg		0.11900121		2.97501680		0.00000000		 0.00019277		-0.00005094		 0.00039414	
Si		4.33866299		1.62763485		2.67376580		-0.00051446		-0.00026388		 0.00011725	
Si		1.05428019		7.38631154		6.51443267		 0.00051446		 0.00026388		-0.00011725	
Si		1.92472276		5.98543882		2.67376580		-0.00059368		 0.00005966		 0.00018872	
Si		3.46821989		3.02850809		6.51443267		 0.00059368		-0.00005966		-0.00018872	
Si		1.80563282		3.00819077		2.67376580		 0.00034200		-0.00039435		-0.00007997	
Si		3.58730984		6.00575562		6.51443267		-0.00034200		 0.00039435		 0.00007997	
Si		4.57649262		7.57338654		2.67376580		 0.00033625		-0.00007412		-0.00016394	
Si		0.81645004		1.44055986		6.51443267		-0.00033625		 0.00007412		 0.00016394	
O		1.83107007		3.02712109		1.08053210		 0.00010540		 0.00000765		-0.00031725	
O		3.56187310		5.98682687		8.10766688		-0.00010540		-0.00000765		 0.00031725	
O		4.60192987		7.59231685		1.08053210		 0.00010205		-0.00002397		-0.00033181	
O		0.79101279		1.42163110		8.10766688		-0.00010205		 0.00002397		 0.00033181	
O		4.36420402		1.64915289		1.08053210		 0.00005963		 0.00006148		-0.00002824	
O		1.02873916		7.36479454		8.10766688		-0.00005963		-0.00006148		 0.00002824	
O		1.95026276		6.00695686		1.08053210		 0.00006412		 0.00002688		-0.00001726	
O		3.44267886		3.00699109		8.10766688		-0.00006412		-0.00002688		 0.00001726	
O		1.70963109		0.05594410		1.03459073		 0.00010136		 0.00011847		-0.00044704	
O		3.32639199		0.03500411		8.15360773		-0.00010136		-0.00011847		 0.00044704	
O		4.48049089		4.62113987		1.03459073		 0.00009770		 0.00008975		-0.00002010	
O		0.91245176		4.39280808		8.15360773		-0.00009770		-0.00008975		 0.00002010	
O		1.94964579		4.49388460		3.19841182		 0.00002505		-0.00008477		 0.00031431	
O		3.44329687		4.52006283		5.98978664		-0.00002505		 0.00008477		-0.00031431	
O		4.36358601		0.13608115		3.19841182		-0.00000082		-0.00005840		 0.00024374	
O		0.67243603		-0.04513293		5.98978664		 0.00000082		 0.00005840		-0.00024374	
O		3.01464011		2.22894807		3.20576300		-0.00058490		-0.00045143		 0.00052612	
O		2.37830306		6.78499988		5.98243702		 0.00058490		 0.00045143		-0.00052612	
O		0.60069989		6.58675153		3.20576300		-0.00025302		-0.00067427		 0.00052989	
O		4.79224277		2.42719591		5.98243702		 0.00025302		 0.00067427		-0.00052989	
O		0.42861991		2.28604205		3.20576300		 0.00026895		-0.00011095		 0.00040065	
O		4.96432275		6.72790591		5.98243702		-0.00026895		 0.00011095		-0.00040065	
O		3.19947971		6.85123781		3.20576300		 0.00003417		-0.00028969		 0.00039787	
O		2.19346295		2.16270910		5.98243702		-0.00003417		 0.00028969		-0.00039787	
H		1.69698615		0.05907978		1.86520400		-0.00006480		-0.00027282		-0.00050613	
H		3.69595702		8.95486765		7.32299499		 0.00006480		 0.00027282		 0.00050613	
H		4.46784595		4.62427607		1.86520400		-0.00006557		-0.00024646		-0.00088773	
H		0.92509619		4.38967188		7.32299499		 0.00006557		 0.00024646		 0.00088773	
