# total energy = -21530.3814391 eV	

CRYSTAL	
PRIMVEC	
		5.18480183		-0.82957060		0.00000000	
		-1.42767782		8.92300215		0.00000000	
		-0.12664274		-0.08757719		9.18819633	
PRIMCOORD
   42 1	
Mg		0.00000000		0.00000000		0.00000000		0.00000000		0.00000000		0.00000000	
Mg		1.87855990		4.04671577		0.00000000		0.00000000		0.00000000		0.00000000	
Mg		2.35456313		1.07169878		0.00000000		-0.00062983		 0.00067623		-0.00008412	
Mg		1.40255721		7.02173382		0.00000000		 0.00062983		-0.00067623		 0.00008412	
Mg		-0.95167723		5.94798305		0.00000000		-0.00063120		 0.00067304		-0.00008523	
Mg		-0.47600322		2.97501700		0.00000000		 0.00063120		-0.00067304		 0.00008523	
Si		4.04737894		0.77155406		2.67376595		-0.00033908		 0.00021296		 0.00037706	
Si		-0.41690188		7.23430397		6.51443300		 0.00033908		-0.00021296		-0.00037706	
Si		0.74113912		5.64783781		2.67376595		-0.00035691		 0.00018544		 0.00033879	
Si		2.88933795		2.35801917		6.51443300		 0.00035691		-0.00018544		-0.00033879	
Si		1.21749886		2.67058977		2.67376595		-0.00034905		 0.00039363		 0.00009241	
Si		2.41297820		5.33526773		6.51443300		 0.00034905		-0.00039363		-0.00009241	
Si		3.09605877		6.71730607		2.67376595		-0.00035156		 0.00039634		 0.00010280	
Si		0.53441777		1.28855196		6.51443300		 0.00035156		-0.00039634		-0.00010280	
O		1.23934774		2.68457619		1.08053211		-0.00039320		-0.00040915		 0.00008994	
O		2.39112880		5.32128185		8.10766685		 0.00039320		 0.00040915		-0.00008994	
O		3.11790817		6.73129196		1.08053211		-0.00039118		-0.00040561		 0.00008525	
O		0.51256889		1.27456607		8.10766685		 0.00039118		 0.00040561		-0.00008525	
O		4.06881406		0.78812804		1.08053211		 0.00023105		 0.00032675		 0.00027112	
O		-0.43833700		7.21772999		8.10766685		-0.00023105		-0.00032675		-0.00027112	
O		0.76257424		5.66441179		1.08053211		 0.00023331		 0.00033348		 0.00030072	
O		2.86790283		2.34144571		8.10766685		-0.00023331		-0.00033348		-0.00030072	
O		1.71212281		-0.28608217		1.03459123		-0.00011171		 0.00023572		-0.00039354	
O		3.34603418		-0.63106090		8.15360772		 0.00011171		-0.00023572		 0.00039354	
O		3.59068271		3.76063413		1.03459123		-0.00009818		 0.00029272		-0.00024394	
O		0.03979383		4.24522390		8.15360772		 0.00009818		-0.00029272		 0.00024394	
O		1.06505081		4.13933893		3.19841208		 0.00050150		 0.00020271		-0.00005241	
O		2.56542573		3.86651805		5.98978687		-0.00050150		-0.00020271		 0.00005241	
O		4.37129116		-0.73694482		3.19841208		 0.00049778		 0.00019257		-0.00005203	
O		0.68686583		-0.18019825		5.98978687		-0.00049778		-0.00019257		 0.00005203	
O		2.59229170		1.64291378		3.20576313		-0.00020410		 0.00065209		 0.00035315	
O		1.03818484		6.36294373		5.98243687		 0.00020410		-0.00065209		-0.00035315	
O		-0.71394813		6.51919805		3.20576313		-0.00021108		 0.00065561		 0.00035367	
O		4.34442467		1.48665998		5.98243687		 0.00021108		-0.00065561		-0.00035367	
O		-0.02588723		2.21849792		3.20576313		 0.00005664		 0.00002447		-0.00069259	
O		3.65636377		5.78736011		5.98243687		-0.00005664		-0.00002447		 0.00069259	
O		1.85267320		6.26521370		3.20576313		 0.00008755		 0.00004727		-0.00068437	
O		1.77780386		1.74064276		5.98243687		-0.00008755		-0.00004727		 0.00068437	
H		1.69874916		-0.28038773		1.86520411		 0.00011709		-0.00070310		 0.00069772	
H		1.93172791		8.28624576		7.32299485		-0.00011709		 0.00070310		-0.00069772	
H		3.57730906		3.76632804		1.86520411		 0.00010512		-0.00075768		 0.00056200	
H		0.05316800		4.23952999		7.32299485		-0.00010512		 0.00075768		-0.00056200	
