# total energy = -21541.1056253 eV	

CRYSTAL	
PRIMVEC	
		5.18480002		-0.20739179		0.00000000	
		-0.35692165		8.92299974		0.00000000	
		-0.13992512		-0.10489454		9.18819639	
PRIMCOORD
   42 1	
Mg		0.00000000		0.00000000		0.00000000		0.00000000		0.00000000		0.00000000	
Mg		2.41393971		4.35780397		0.00000000		0.00000000		0.00000000		0.00000000	
Mg		2.53294092		1.38278717		0.00000000		-0.00002586		-0.00006147		-0.00083661	
Mg		2.29493901		7.33282181		0.00000000		 0.00002586		 0.00006147		 0.00083661	
Mg		-0.23791888		5.94798293		0.00000000		-0.00002601		-0.00007579		-0.00083694	
Mg		-0.11900121		2.97501680		0.00000000		 0.00002601		 0.00007579		 0.00083694	
Si		4.22214988		1.28520281		2.67376580		-0.00015865		 0.00059854		 0.00020287	
Si		0.46580701		7.32550851		6.51443267		 0.00015865		-0.00059854		-0.00020287	
Si		1.45129008		5.85039858		2.67376580		-0.00015626		 0.00049869		 0.00017129	
Si		3.23666681		2.76031275		6.51443267		 0.00015626		-0.00049869		-0.00017129	
Si		1.57037898		2.87315105		2.67376580		-0.00016153		 0.00079454		 0.00019389	
Si		3.11757687		5.73756080		6.51443267		 0.00016153		-0.00079454		-0.00019389	
Si		3.98431973		7.23095450		2.67376580		-0.00018585		 0.00072043		 0.00021803	
Si		0.70363716		1.37975682		6.51443267		 0.00018585		-0.00072043		-0.00021803	
O		1.59438097		2.89010282		1.08053210		-0.00044570		 0.00049275		 0.00010289	
O		3.09357488		5.72060903		8.10766688		 0.00044570		-0.00049275		-0.00010289	
O		4.00832068		7.24790679		1.08053210		-0.00044430		 0.00050150		 0.00010484	
O		0.67963517		1.36280506		8.10766688		 0.00044430		-0.00050150		-0.00010484	
O		4.24604809		1.30474283		1.08053210		 0.00071662		 0.00010455		 0.00015105	
O		0.44190880		7.30596850		8.10766688		-0.00071662		-0.00010455		-0.00015105	
O		1.47518777		5.86993859		1.08053210		 0.00071574		 0.00011428		 0.00015701	
O		3.21276912		2.74077273		8.10766688		-0.00071574		-0.00011428		-0.00015701	
O		1.71062685		-0.08086713		1.03459073		-0.00016664		-0.00014240		-0.00002753	
O		3.33424909		-0.23142180		8.15360773		 0.00016664		 0.00014240		 0.00002753	
O		4.12456760		4.27693684		1.03459073		-0.00016561		-0.00014180		-0.00002236	
O		0.56338877		4.33377396		8.15360773		 0.00016561		 0.00014180		 0.00002236	
O		1.59580793		4.35206707		3.19841182		-0.00017060		 0.00050842		 0.00026913	
O		3.09214792		4.25864477		5.98978664		 0.00017060		-0.00050842		-0.00026913	
O		4.36666773		-0.21313025		3.19841182		-0.00016358		 0.00049644		 0.00028773	
O		0.67820821		-0.09915920		5.98978664		 0.00016358		-0.00049644		-0.00028773	
O		2.84570100		1.99453381		3.20576300		-0.00051245		-0.00004196		-0.00000253	
O		1.84225588		6.61617752		5.98243702		 0.00051245		 0.00004196		 0.00000253	
O		0.07484121		6.55972957		3.20576300		-0.00057997		 0.00000618		-0.00000134	
O		4.61311568		2.05098175		5.98243702		 0.00057997		-0.00000618		 0.00000134	
O		0.24681689		2.25902372		3.20576300		 0.00008269		 0.00006782		-0.00015099	
O		4.44113896		6.35168657		5.98243702		-0.00008269		-0.00006782		 0.00015099	
O		2.66075711		6.61682769		3.20576300		 0.00017911		 0.00013096		-0.00014847	
O		2.02719874		1.99388311		5.98243702		-0.00017911		-0.00013096		 0.00014847	
H		1.69769185		-0.07670819		1.86520400		-0.00066199		-0.00001560		-0.00062147	
H		2.99026504		8.68741848		7.32299499		 0.00066199		 0.00001560		 0.00062147	
H		4.11163103		4.28109682		1.86520400		-0.00066317		-0.00001669		-0.00062608	
H		0.57632482		4.32961502		7.32299499		 0.00066317		 0.00001669		 0.00062608	
