# total energy = -24706.8759314 eV	

CRYSTAL	
PRIMVEC	
		9.03900340		1.44624457		0.00000000	
		1.39120176		8.69499728		0.00000000	
		0.00000000		0.00000000		5.08900210	
PRIMCOORD
   40 1	
O		1.21391869		0.92624335		0.29974211		-0.00053615		-0.00025061		-0.00041787	
O		2.36471895		8.11874584		2.84424224		-0.00026553		 0.00051064		 0.00037058	
O		6.42901762		5.99686336		2.24475802		-0.00053615		-0.00025061		 0.00041787	
O		6.18861885		4.49436674		4.78925816		-0.00026553		 0.00051064		-0.00037058	
O		3.74903418		2.68405787		0.53739834		-0.00018291		-0.00020348		-0.00058744	
O		4.45576445		7.10111843		3.08189939		 0.00011409		-0.00040252		 0.00047599	
O		8.96413310		7.75467697		2.00710179		-0.00018291		-0.00020348		 0.00058744	
O		8.27966344		3.47673841		4.55160192		 0.00011409		-0.00040252		-0.00047599	
O		4.57095799		8.87248998		1.40456381		 0.00031879		 0.00033824		 0.00020735	
O		3.28855022		0.85743938		3.94906394		 0.00045843		 0.00023847		-0.00038611	
O		8.39485789		5.24810996		1.13993632		 0.00031879		 0.00033824		-0.00020735	
O		8.50365006		5.92805939		3.68443646		 0.00045843		 0.00023847		 0.00038611	
O		9.20404121		9.17152265		4.45338442		-0.00002335		 0.00002612		 0.00008824	
O		8.06687396		2.06423079		1.90888429		 0.00014531		-0.00067310		-0.00038650	
O		3.98894137		4.10090447		3.18011598		-0.00002335		 0.00002612		-0.00008824	
O		4.24297406		5.68861081		0.63561584		 0.00014531		-0.00067310		 0.00038650	
O		6.67456366		7.50950166		4.87882516		-0.00026655		-0.00003853		 0.00000451	
O		5.95030536		2.98288458		2.33432411		-0.00023277		 0.00037080		-0.00011543	
O		1.45946382		2.43888165		2.75467616		-0.00026655		-0.00003853		-0.00000451	
O		2.12640546		6.60726460		0.21017602		-0.00023277		 0.00037080		 0.00011543	
O		7.16681371		9.20987961		2.86103611		 0.00008148		 0.00022817		 0.00000524	
O		5.91000410		1.35481840		0.31653598		 0.00015216		-0.00001652		 0.00017592	
O		1.95171387		4.13926143		4.77246429		 0.00008148		 0.00022817		-0.00000524	
O		2.08610420		4.97919842		2.22796415		 0.00015216		-0.00001652		-0.00017592	
Si		2.80527105		1.20034610		0.34808788		-0.00040797		 0.00016795		-0.00048199	
Si		3.94967177		8.35285308		2.89258801		-0.00018802		 0.00024619		 0.00012904	
Si		8.02036997		6.27096612		2.19641317		-0.00040797		 0.00016795		 0.00048199	
Si		7.77357076		4.72847306		4.74091239		-0.00018802		 0.00024619		-0.00012904	
Si		7.61102191		8.93104334		4.38671790		-0.00008109		-0.00006100		 0.00010773	
Si		6.46912481		1.79418781		1.84221777		 0.00021631		-0.00011524		 0.00003208	
Si		2.39592208		3.86042332		3.24678158		-0.00008109		-0.00006100		-0.00010773	
Si		2.64522582		5.41856783		0.70228236		 0.00021631		-0.00011524		-0.00003208	
Mg		9.15009596		2.27821395		3.64372418		 0.00024645		-0.00011867		 0.00019459	
Mg		10.27390849		9.30203535		1.09922405		-0.00018105		-0.00035244		-0.00003716	
Mg		5.32619697		5.90259305		3.98977622		 0.00024645		-0.00011867		-0.00019459	
Mg		5.05880773		4.23141534		1.44527608		-0.00018105		-0.00035244		 0.00003716	
Mg		0.41970211		2.29285389		1.09464432		 0.00005685		 0.00033952		-0.00021961	
Mg		1.07996593		6.41950115		3.63914445		 0.00057552		-0.00023400		-0.00025988	
Mg		5.63480195		7.36347299		1.44985581		 0.00005685		 0.00033952		 0.00021961	
Mg		4.90386492		2.79512113		3.99435595		 0.00057552		-0.00023400		 0.00025988	
