# total energy = -24712.8710363 eV	

CRYSTAL	
PRIMVEC	
		9.03899718		0.72311796		0.00000000	
		0.69559695		8.69499814		0.00000000	
		0.00000000		0.00000000		5.08900215	
PRIMCOORD
   40 1	
O		1.15381861		0.83874610		0.29974235		 0.00017675		 0.00001611		-0.00028110	
O		1.72921901		8.03124849		2.84424161		 0.00012269		 0.00060656		 0.00004739	
O		6.02111839		5.54780597		2.24475782		 0.00017675		 0.00001611		 0.00028110	
O		5.90091913		4.04530930		4.78925799		 0.00012269		 0.00060656		-0.00004739	
O		3.57791549		2.41151429		0.53739784		 0.00006809		 0.00081779		-0.00013675	
O		3.93128073		6.82857397		3.08189891		 0.00018727		-0.00034314		-0.00003327	
O		8.44521527		7.12057416		2.00710233		 0.00006809		 0.00081779		 0.00013675	
O		8.10298085		2.84263388		4.55160160		 0.00018727		-0.00034314		 0.00003327	
O		3.90255551		8.61375811		1.40456358		 0.00003691		-0.00009707		-0.00027668	
O		3.26135223		0.59870667		3.94906375		-0.00034870		 0.00033283		 0.00005810	
O		8.07425562		4.62781802		1.13993568		 0.00003691		-0.00009707		 0.00027668	
O		8.12865201		5.30776653		3.68443586		-0.00034870		 0.00033283		-0.00005810	
O		8.57194885		8.53633475		4.45338378		 0.00009119		-0.00055177		 0.00011023	
O		8.00336567		1.42904232		1.90888361		 0.00035418		-0.00042302		-0.00041657	
O		3.70464906		3.82727489		3.18011583		 0.00009119		-0.00055177		-0.00011023	
O		3.83166556		5.41498150		0.63561565		 0.00035418		-0.00042302		 0.00041657	
O		6.14569925		7.06015488		4.87882506		 0.00014919		-0.00046391		 0.00070778	
O		5.78356990		2.53353801		2.33432398		 0.00000540		-0.00028964		 0.00038363	
O		1.27839856		2.35109502		2.75467636		 0.00014919		-0.00046391		-0.00070778	
O		1.61186979		6.51947810		0.21017619		 0.00000540		-0.00028964		-0.00038363	
O		6.50481172		8.74245579		2.86103623		 0.00038839		-0.00006139		 0.00035467	
O		5.87640684		0.88739255		0.31653606		-0.00027477		-0.00046400		 0.00021399	
O		1.63751193		4.03339593		4.77246428		 0.00038839		-0.00006139		-0.00035467	
O		1.70470673		4.87333264		2.22796411		-0.00027477		-0.00046400		-0.00021399	
Si		2.74357093		0.98579626		0.34808774		 0.00007541		 0.00021531		 0.00028962	
Si		3.31577129		8.13830295		2.89258791		-0.00053374		-0.00019456		 0.00000973	
Si		7.61087071		5.69485613		2.19641334		 0.00007541		 0.00021531		-0.00028962	
Si		7.48747049		4.15236286		4.74091169		-0.00053374		-0.00019456		-0.00000973	
Si		6.97774782		8.42348501		4.38671764		 0.00008930		-0.00019018		 0.00023993	
Si		6.40679974		1.28663038		1.84221838		 0.00058561		 0.00018780		 0.00007293	
Si		2.11044804		3.71442605		3.24678196		 0.00008930		-0.00019018		-0.00023993	
Si		2.23509963		5.27256956		0.70228179		 0.00058561		 0.00018780		-0.00007293	
Mg		9.08324842		1.55690212		3.64372380		 0.00029976		 0.00002511		-0.00029463	
Mg		9.64515492		8.58072292		1.09922363		 0.00018897		 0.00040620		 0.00054126	
Mg		4.91154922		5.54284040		3.98977580		 0.00029976		 0.00002511		 0.00029463	
Mg		4.77785514		3.87166306		1.44527563		 0.00018897		 0.00040620		-0.00054126	
Mg		0.23696815		2.28851487		1.09464435		-0.00091638		 0.00051649		 0.00043448	
Mg		0.56709967		6.41516214		3.63914362		-0.00074551		-0.00004550		 0.00007453	
Mg		5.10426793		6.99757474		1.44985582		-0.00091638		 0.00051649		-0.00043448	
Mg		4.73879888		2.42922205		3.99435599		-0.00074551		-0.00004550		-0.00007453	
