# total energy = -14245.1391189 eV	

CRYSTAL	
PRIMVEC	
		7.86000253		1.25760391		0.00000000	
		1.25760391		7.86000253		0.00000000	
		0.00000000		0.00000000		5.02399989	
PRIMCOORD
   24 1	
O		1.55703098		3.00176905		1.27780393		-0.00020536		 0.00020536		 0.00017859	
O		7.56056829		6.11583181		1.27780393		 0.00020536		-0.00020536		 0.00017859	
O		3.90575678		7.20695689		3.74619596		 0.00006105		 0.00006105		 0.00050968	
O		5.21184408		1.91064318		3.74619596		-0.00006105		-0.00006105		 0.00050968	
O		0.88518071		1.56800062		3.96062009		 0.00038527		 0.00013180		-0.00022150	
O		8.23241936		7.54959865		3.96062009		-0.00038527		-0.00013180		-0.00022150	
O		2.61729206		7.44324945		1.06337980		-0.00037468		-0.00041441		 0.00021846	
O		6.50030800		1.67434982		1.06337980		 0.00037468		 0.00041441		 0.00021846	
O		4.14205014		5.91849138		1.06337980		-0.00041441		-0.00037468		 0.00021846	
O		4.97554993		3.19910790		1.06337980		 0.00041441		 0.00037468		 0.00021846	
O		2.99079862		3.67361853		3.96062009		-0.00013180		-0.00038527		-0.00022150	
O		6.12680065		5.44398074		3.96062009		 0.00013180		 0.00038527		-0.00022150	
O		0.62880036		3.92999967		4.11616272		0.00000000		0.00000000		 0.00027976	
O		3.92999967		0.62880036		0.90783717		0.00000000		0.00000000		-0.00004316	
Ca		2.81856473		1.74023531		2.54686701		-0.00008071		 0.00008071		-0.00039462	
Ca		6.29903454		7.37736476		2.54686701		 0.00008071		-0.00008071		-0.00039462	
Ca		2.16363894		5.46483905		2.47713288		 0.00026707		 0.00026707		-0.00045073	
Ca		6.95396192		3.65276181		2.47713288		-0.00026707		-0.00026707		-0.00045073	
Si		1.55254156		3.00625768		4.69934846		 0.00000996		-0.00000996		 0.00016404	
Si		7.56505771		6.11134159		4.69934846		-0.00000996		 0.00000996		 0.00016404	
Si		3.91195680		7.21315691		0.32465063		 0.00017129		 0.00017129		 0.00010281	
Si		5.20564247		1.90444316		0.32465063		-0.00017129		-0.00017129		 0.00010281	
Mg		0.00000000		0.00000000		0.00000000		0.00000000		0.00000000		-0.00022197	
Mg		4.55880003		4.55880003		0.00000000		0.00000000		0.00000000		-0.00022197	
