# total energy = -14249.0020733 eV	

CRYSTAL	
PRIMVEC	
		7.85999768		-0.62879824		0.00000000	
		-0.62879824		7.85999768		0.00000000	
		0.00000000		0.00000000		5.02399896	
PRIMCOORD
   24 1	
O		0.87904014		2.73655958		1.27780365		 0.00021368		-0.00021368		 0.00049159	
O		6.35216009		4.49464065		1.27780365		-0.00021368		 0.00021368		 0.00049159	
O		2.28456605		6.52896558		3.74619610		 0.00003003		 0.00003003		 0.00009419	
O		4.94663497		0.70223386		3.74619610		-0.00003003		-0.00003003		 0.00009419	
O		0.53385676		1.41176933		3.96061988		-0.00008720		 0.00022058		-0.00025136	
O		6.69734268		5.81943090		3.96061988		 0.00008720		-0.00022058		-0.00025136	
O		0.88712396		7.09192708		1.06337986		 0.00016263		-0.00033865		 0.00018665	
O		6.34407627		0.13927315		1.06337986		-0.00016263		 0.00033865		 0.00018665	
O		2.84752676		5.13152429		1.06337986		-0.00033865		 0.00016263		 0.00018665	
O		4.38367269		2.09967595		1.06337986		 0.00033865		-0.00016263		 0.00018665	
O		2.20383118		3.08174296		3.96061988		-0.00022058		 0.00008720		-0.00025136	
O		5.02736906		4.14945806		3.96061988		 0.00022058		-0.00008720		-0.00025136	
O		-0.31439991		3.92999963		4.11616318		0.00000000		0.00000000		-0.00002243	
O		3.92999963		-0.31439991		0.90783736		0.00000000		0.00000000		-0.00008525	
Ca		2.50101158		1.11458815		2.54686666		-0.00015921		 0.00015921		-0.00076902	
Ca		4.73018787		6.11661209		2.54686666		 0.00015921		-0.00015921		-0.00076902	
Ca		0.90288630		5.14728584		2.47713309		 0.00048935		 0.00048935		-0.00019401	
Ca		6.32831393		2.08391361		2.47713309		-0.00048935		-0.00048935		-0.00019401	
Si		0.87326824		2.74233227		4.69934920		-0.00008647		 0.00008647		 0.00036719	
Si		6.35793199		4.48886796		4.69934920		 0.00008647		-0.00008647		 0.00036719	
Si		2.28948320		6.53388274		0.32465134		 0.00005574		 0.00005574		-0.00002791	
Si		4.94171703		0.69731670		0.32465134		-0.00005574		-0.00005574		-0.00002791	
Mg		0.00000000		0.00000000		0.00000000		0.00000000		0.00000000		 0.00022123	
Mg		3.61559972		3.61559972		0.00000000		0.00000000		0.00000000		 0.00022123	
