# total energy = -14247.1776059 eV	

CRYSTAL	
PRIMVEC	
		7.86000087		-0.94319820		0.00000000	
		-0.94319820		7.86000087		0.00000000	
		0.00000000		0.00000000		5.02400190	
PRIMCOORD
   24 1	
O		0.76604208		2.69235767		1.27780419		 0.00030347		-0.00030347		 0.00042533	
O		6.15075742		4.22444183		1.27780419		-0.00030347		 0.00030347		 0.00042533	
O		2.01436722		6.41596675		3.74619612		-0.00001536		-0.00001536		 0.00018636	
O		4.90243307		0.50083274		3.74619612		 0.00001536		 0.00001536		 0.00018636	
O		0.47530397		1.38573070		3.96061945		 0.00005688		 0.00011474		-0.00035603	
O		6.44149632		5.53106880		3.96061945		-0.00005688		-0.00011474		-0.00035603	
O		0.59876165		7.03337229		1.06338008		 0.00017731		-0.00038673		 0.00024451	
O		6.31803785		-0.11657279		1.06338008		-0.00017731		 0.00038673		 0.00024451	
O		2.63177275		5.00036198		1.06338008		-0.00038673		 0.00017731		 0.00024451	
O		4.28502675		1.91643752		1.06338008		 0.00038673		-0.00017731		 0.00024451	
O		2.07266905		2.98309578		3.96061945		-0.00011474		-0.00005688		-0.00035603	
O		4.84413045		3.93370372		3.96061945		 0.00011474		 0.00005688		-0.00035603	
O		-0.47159989		3.92999964		4.11616304		0.00000000		0.00000000		-0.00012942	
O		3.92999964		-0.47159989		0.90783728		0.00000000		0.00000000		 0.00014909	
Ca		2.44808719		1.01031256		2.54686710		 0.00000559		-0.00000559		-0.00077300	
Ca		4.46871310		5.90648694		2.54686710		-0.00000559		 0.00000559		-0.00077300	
Ca		0.69276006		5.09435960		2.47713321		 0.00053017		 0.00053017		-0.00029835	
Ca		6.22403944		1.82243990		2.47713321		-0.00053017		-0.00053017		-0.00029835	
Si		0.76005570		2.69834404		4.69934840		 0.00001749		-0.00001749		 0.00018572	
Si		6.15674459		4.21845545		4.69934840		-0.00001749		 0.00001749		 0.00018572	
Si		2.01906955		6.42067067		0.32465113		 0.00007911		 0.00007911		 0.00012371	
Si		4.89772836		0.49612883		0.32465113		-0.00007911		-0.00007911		 0.00012371	
Mg		0.00000000		0.00000000		0.00000000		0.00000000		0.00000000		 0.00036345	
Mg		3.45839975		3.45839975		0.00000000		0.00000000		0.00000000		 0.00036345	
