# total energy = -9215.15806588 eV

CRYSTAL
PRIMVEC
		5.32599971		0.00000000		0.00000000
		-2.66299986		4.49714101		0.00000000
		0.00000000		0.00000000		7.28800214
PRIMECORD
   18 1
Mg		1.76716670		0.00000000		3.31603985		 0.00018453		-0.00000000		-0.00018858
Mg		-0.88358282		1.49215072		3.31603985		-0.00021407		 0.00000549		-0.00028822
Mg		1.77941704		3.00498869		3.31603985		-0.00021407		-0.00000549		-0.00028822
Si		0.00000000		2.99809365		0.53931180		 0.00000677		-0.00002050		 0.00007571
Si		2.66299986		1.49904682		0.53931180		 0.00000677		 0.00002050		 0.00007571
H		3.10505783		0.00000000		5.33481584		-0.00004030		0.00000000		 0.00006842
H		-1.55252892		2.62183307		5.33481584		-0.00003007		-0.00014075		 0.00044156
H		1.11047094		1.87530687		5.33481584		-0.00003007		 0.00014075		 0.00044156
H		0.00000000		0.00000000		1.43573613		 0.00004310		-0.00000000		 0.00087689
O		0.00000000		2.99809365		2.12153689		-0.00007299		 0.00001305		 0.00006298
O		2.66299986		1.49904682		2.12153689		-0.00007299		-0.00001305		 0.00006298
O		2.70028185		0.00000000		7.22969575		 0.00007214		0.00000000		 0.00023057
O		-1.35014093		2.28004982		7.22969575		-0.00000597		 0.00002584		 0.00004945
O		1.31285893		2.21709012		7.22969575		-0.00000597		-0.00002584		 0.00004945
O		3.53646381		0.00000000		4.28534357		-0.00035823		-0.00000000		-0.00039676
O		-1.76823190		2.98610110		4.28534357		 0.00033320		-0.00031021		-0.00065851
O		0.89476795		1.51103885		4.28534357		 0.00033320		 0.00031021		-0.00065851
O		0.00000000		0.00000000		2.21555197		 0.00006501		0.00000000		 0.00004348
