# total energy = -8277.22499392 eV

CRYSTAL
PRIMVEC
		4.21100065		-0.50531906		0.00000000
		-0.50531906		4.21100065		0.00000000
		0.00000000		0.00000000		4.21100065
PRIMECORD
   8 1
Mg		0.00000000		0.00000000		0.00000000		0.00000000		0.00000000		0.00000000
Mg		-0.25265995		2.10549990		2.10549990		0.00000000		0.00000000		0.00000000
Mg		2.10549990		-0.25265995		2.10549990		0.00000000		0.00000000		0.00000000
Mg		1.85283995		1.85283995		0.00000000		0.00000000		0.00000000		0.00000000
O		1.85283995		1.85283995		2.10549990		0.00000000		0.00000000		0.00000000
O		2.10549990		-0.25265995		0.00000000		0.00000000		0.00000000		0.00000000
O		-0.25265995		2.10549990		0.00000000		0.00000000		0.00000000		0.00000000
O		0.00000000		0.00000000		2.10549990		0.00000000		0.00000000		0.00000000
