# total energy = -12354.5761794 eV	

CRYSTAL	
PRIMVEC	
		4.74988691		0.00000000		0.00000000	
		0.00000000		4.92287798		0.00000000	
		0.00000000		0.00000000		6.87246894	
PRIMCOORD
   20 1	
O		0.50195190		2.29323730		1.71811701		-0.00005806		-0.00022503		-0.00000013	
O		4.24793457		2.62964112		5.15435104		 0.00005781		 0.00022499		0.00000000	
O		2.87689536		0.16820169		5.15435104		-0.00005716		 0.00022499		 0.00000015	
O		1.87299111		4.75467629		1.71811701		 0.00005698		-0.00022492		-0.00000025	
O		0.92595048		0.98535923		3.80942562		 0.00001633		-0.00009964		-0.00005395	
O		3.82393644		3.93751875		3.06304244		-0.00001643		 0.00009957		 0.00005407	
O		3.30089349		1.47607976		3.06304244		 0.00001745		 0.00010052		 0.00005384	
O		1.44899298		3.44679867		3.80942562		-0.00001723		-0.00010053		-0.00005400	
O		3.82393644		3.93751919		0.37319159		-0.00001642		 0.00009939		-0.00005426	
O		0.92595048		0.98535968		6.49927647		 0.00001657		-0.00009965		 0.00005421	
O		1.44899298		3.44679867		6.49927691		-0.00001698		-0.00010006		 0.00005432	
O		3.30089393		1.47607976		0.37319159		 0.00001712		 0.00010021		-0.00005402	
Mg		2.45344439		2.75950510		1.71811701		-0.00031582		-0.00004114		 0.00000005	
Mg		2.29644252		2.16337332		5.15435149		 0.00031580		 0.00004114		-0.00000005	
Mg		0.07850138		4.62481231		5.15435149		-0.00031540		 0.00004122		-0.00000008	
Mg		4.67138553		0.29806611		1.71811701		 0.00031540		-0.00004112		 0.00000005	
Si		2.37494346		0.00000000		3.43623403		-0.00000005		 0.00000003		 0.00000004	
Si		0.00000000		2.46143899		3.43623403		 0.00000013		 0.00000002		 0.00000014	
Si		2.37494346		0.00000000		0.00000000		-0.00000006		 0.00000008		 0.00000005	
Si		0.00000000		2.46143899		0.00000000		 0.00000005		-0.00000007		-0.00000016	
