# total energy = -12354.4277446 eV	

CRYSTAL	
PRIMVEC	
		4.88233160		0.00000000		0.00000000	
		0.00000000		5.03675632		0.00000000	
		0.00000000		0.00000000		7.06734670	
PRIMCOORD
   20 1	
O		0.50321247		2.34568268		1.76683667		-0.00007143		-0.00088290		 0.00000024	
O		4.37911824		2.69107364		5.30050914		 0.00007163		 0.00088272		-0.00000031	
O		2.94437783		0.17269548		5.30050958		-0.00007107		 0.00088314		-0.00000021	
O		1.93795333		4.86406084		1.76683667		 0.00007125		-0.00088299		 0.00000017	
O		0.96826237		1.02220701		3.91121250		-0.00014513		-0.00014369		-0.00001148	
O		3.91406879		4.01454976		3.15613331		 0.00014485		 0.00014378		 0.00001144	
O		3.40942728		1.49617160		3.15613331		-0.00014417		 0.00014450		 0.00001121	
O		1.47290343		3.54058517		3.91121250		 0.00014416		-0.00014461		-0.00001131	
O		3.91406879		4.01454931		0.37753959		 0.00014506		 0.00014380		-0.00001122	
O		0.96826192		1.02220656		6.68980622		-0.00014508		-0.00014364		 0.00001134	
O		1.47290343		3.54058472		6.68980622		 0.00014419		-0.00014453		 0.00001132	
O		3.40942772		1.49617160		0.37753959		-0.00014439		 0.00014444		-0.00001119	
Mg		2.51567655		2.80332248		1.76683623		-0.00023846		 0.00028720		-0.00000026	
Mg		2.36665416		2.23343428		5.30050914		 0.00023845		-0.00028730		 0.00000023	
Mg		0.07451164		4.75181200		5.30050914		-0.00023813		-0.00028714		 0.00000034	
Mg		4.80781907		0.28494432		1.76683623		 0.00023813		 0.00028723		-0.00000035	
Si		2.44116536		0.00000000		3.53367290		-0.00000001		-0.00000003		 0.00000026	
Si		0.00000000		2.51837816		3.53367290		 0.00000009		0.00000000		-0.00000014	
Si		2.44116536		0.00000000		0.00000000		 0.00000009		-0.00000003		-0.00000024	
Si		0.00000000		2.51837816		0.00000000		-0.00000000		 0.00000004		 0.00000016	
