# total energy = -12354.4940744 eV	

CRYSTAL	
PRIMVEC	
		4.73392083		0.00000000		0.00000000	
		0.00000000		4.90958328		0.00000000	
		0.00000000		0.00000000		6.84973772	
PRIMCOORD
   20 1	
O		0.50193768		2.28715890		1.71243376		-0.00005212		-0.00017214		-0.00000065	
O		4.23198449		2.62242616		5.13730174		 0.00005181		 0.00017197		 0.00000049	
O		2.86889898		0.16763363		5.13730174		-0.00005278		 0.00017207		 0.00000016	
O		1.86502363		4.74195143		1.71243376		 0.00005269		-0.00017179		-0.00000035	
O		0.92089618		0.98114058		3.79766041		 0.00004353		-0.00008887		-0.00006510	
O		3.81302643		3.92844404		3.05207509		-0.00004367		 0.00008880		 0.00006493	
O		3.28785748		1.47365195		3.05207509		 0.00004292		 0.00008740		 0.00006511	
O		1.44606513		3.43593311		3.79766041		-0.00004261		-0.00008749		-0.00006523	
O		3.81302643		3.92844448		0.37279244		-0.00004363		 0.00008879		-0.00006505	
O		0.92089618		0.98114058		6.47694307		 0.00004381		-0.00008854		 0.00006555	
O		1.44606513		3.43593311		6.47694307		-0.00004293		-0.00008737		 0.00006538	
O		3.28785748		1.47365195		0.37279244		 0.00004323		 0.00008730		-0.00006530	
Mg		2.44608942		2.75467083		1.71243376		-0.00030648		-0.00005482		 0.00000003	
Mg		2.28783319		2.15491423		5.13730174		 0.00030634		 0.00005477		-0.00000012	
Mg		0.07912811		4.60970677		5.13730174		-0.00030648		 0.00005508		-0.00000007	
Mg		4.65479450		0.29987830		1.71243421		 0.00030640		-0.00005506		 0.00000011	
Si		2.36696130		0.00000000		3.42486797		-0.00000015		-0.00000011		 0.00000005	
Si		0.00000000		2.45479253		3.42486797		 0.00000012		 0.00000010		 0.00000037	
Si		2.36696130		0.00000000		0.00000000		-0.00000005		-0.00000028		0.00000000	
Si		0.00000000		2.45479253		0.00000000		 0.00000005		 0.00000022		-0.00000033	
