# total energy = -117595.548911 eV

CRYSTAL
PRIMVEC
		10.58799967		0.00000000		0.00000000
		0.00000000		14.09700041		0.00000000
		-2.45393833		0.00000000		10.74647026
PRIMECORD
   156 1
Si		8.18330189		0.01395604		0.79685074		 0.00014892		-0.00012890		-0.00012760
Si		-0.04923632		14.08304331		9.94962164		-0.00014892		 0.00012890		 0.00012760
Si		1.17773073		7.06245625		4.57638545		-0.00014892		-0.00012890		 0.00012760
Si		6.95633484		7.03454416		6.17008799		 0.00014892		 0.00012890		-0.00012760
Si		3.61492732		2.67335451		7.23860880		 0.00015674		-0.00004178		-0.00019145
Si		4.51914037		11.42364484		3.50786358		-0.00015674		 0.00004178		 0.00019145
Si		3.29217333		9.72185471		8.88109977		-0.00015674		-0.00004178		 0.00019145
Si		4.84189437		4.37514464		1.86537261		 0.00015674		 0.00004178		-0.00019145
Si		1.21183891		1.76917322		4.58605653		-0.00004019		-0.00018019		 0.00029107
Si		6.92222666		12.32782613		6.16041585		 0.00004019		 0.00018019		-0.00029107
Si		8.14919371		8.81767236		0.78717860		 0.00004019		-0.00018019		-0.00029107
Si		-0.01512708		5.27932699		9.95929378		-0.00004019		 0.00018019		 0.00029107
Si		6.86524205		1.73858343		6.15772861		-0.00003421		-0.00002325		 0.00031336
Si		1.26882459		12.35841698		4.58874377		 0.00003421		 0.00002325		-0.00031336
Si		0.04185754		8.78708257		9.96197996		 0.00003421		-0.00002325		-0.00031336
Si		8.09220909		5.30991678		0.78449348		-0.00003421		 0.00002325		 0.00031336
Mg		4.06703279		0.00000000		5.37323619		0.00000000		0.00000000		0.00000000
Mg		5.29399984		7.04850020		0.00000000		0.00000000		0.00000000		0.00000000
Mg		4.39572559		2.46006772		3.82993465		 0.00034814		-0.00015611		-0.00016511
Mg		3.73834104		11.63693268		6.91653667		-0.00034814		 0.00015611		 0.00016511
Mg		4.96530809		9.50856793		1.54330048		-0.00034814		-0.00015611		 0.00016511
Mg		3.16875854		4.58843248		9.20317190		 0.00034814		 0.00015611		-0.00016511
Mg		5.29399984		0.00000000		0.00000000		0.00000000		0.00000000		0.00000000
Mg		4.06703279		7.04850020		5.37323619		0.00000000		0.00000000		0.00000000
Mg		6.19165257		0.03510240		3.15022107		 0.00008058		-0.00012933		-0.00019582
Mg		1.94241301		14.06189907		7.59625131		-0.00008058		 0.00012933		 0.00019582
Mg		3.16938006		7.08360048		2.22301512		-0.00008058		-0.00012933		 0.00019582
Mg		4.96468552		7.01339781		8.52345726		 0.00008058		 0.00012933		-0.00019582
Mg		0.42170944		0.00493401		1.63776238		 0.00022444		-0.00016077		 0.00023322
Mg		7.71235825		14.09206534		9.10871000		-0.00022444		 0.00016077		-0.00023322
Mg		8.93932424		7.05343421		3.73547381		-0.00022444		-0.00016077		-0.00023322
Mg		-0.80525761		7.04356620		7.01099857		 0.00022444		 0.00016077		 0.00023322
Mg		-0.86838750		0.00493401		6.82100221		-0.00002620		 0.00012081		-0.00019185
Mg		9.00245519		14.09206534		3.92547123		 0.00002620		-0.00012081		 0.00019185
Mg		7.77548814		7.05343421		9.29870742		 0.00002620		 0.00012081		 0.00019185
Mg		0.35857849		7.04356620		1.44776496		-0.00002620		-0.00012081		-0.00019185
Mg		3.19404057		0.03904854		2.31532765		-0.00059883		-0.00010490		 0.00011833
Mg		4.94002607		14.05795081		8.43114473		 0.00059883		 0.00010490		-0.00011833
Mg		6.16699311		7.08754875		3.05790854		 0.00059883		-0.00010490		-0.00011833
Mg		1.96707352		7.00945060		7.68856384		-0.00059883		 0.00010490		 0.00011833
Mg		6.57114024		2.39564398		1.32837044		-0.00037864		-0.00007436		 0.00017286
Mg		1.56292640		11.70135537		9.41810088		 0.00037864		 0.00007436		-0.00017286
Mg		2.78989239		9.44414419		4.04486469		 0.00037864		-0.00007436		-0.00017286
Mg		5.34417319		4.65285622		6.70160769		-0.00037864		 0.00007436		 0.00017286
Mg		-1.63791484		2.43920407		10.42096127		 0.00003427		 0.00004109		 0.00022851
Mg		9.77198042		11.65779528		0.32551111		-0.00003427		-0.00004109		-0.00022851
Mg		8.54501337		9.48770322		5.69874730		-0.00003427		 0.00004109		-0.00022851
Mg		-0.41094780		4.60929613		5.04772614		 0.00003427		-0.00004109		 0.00022851
Mg		0.46893509		2.49798759		8.08102499		 0.00005537		-0.00010360		 0.00012325
Mg		7.66513154		11.59901070		2.66544739		-0.00005537		 0.00010360		-0.00012325
Mg		6.43816449		9.54648885		8.03868358		-0.00005537		-0.00010360		-0.00012325
Mg		1.69590108		4.55051050		2.70778880		 0.00005537		 0.00010360		 0.00012325
Mg		6.00405545		2.48008540		9.61658882		 0.00084925		-0.00009512		-0.00028556
Mg		2.13001119		11.61691501		1.12988356		-0.00084925		 0.00009512		 0.00028556
Mg		0.90304414		9.52858560		6.50311975		-0.00084925		-0.00009512		 0.00028556
Mg		7.23102249		4.56841481		4.24335263		 0.00084925		 0.00009512		-0.00028556
Mg		3.60529224		2.37633041		0.48466568		 0.00063284		 0.00013792		-0.00028732
Mg		4.52877334		11.72066894		10.26180670		-0.00063284		-0.00013792		 0.00028732
Mg		5.75574038		9.42483062		4.88856945		-0.00063284		 0.00013792		 0.00028732
Mg		2.37832519		4.67216873		5.85790188		 0.00063284		-0.00013792		-0.00028732
Mg		9.40458318		2.50221643		2.13661386		 0.00026350		-0.00036680		 0.00023010
Mg		-1.27051655		11.59478186		8.60985852		-0.00026350		 0.00036680		-0.00023010
Mg		-0.04354950		9.55071770		3.23662338		-0.00026350		-0.00036680		-0.00023010
Mg		8.17761719		4.54628165		7.50985005		 0.00026350		 0.00036680		 0.00023010
O		3.63390525		1.06009382		7.19583751		 0.00038552		 0.00010835		-0.00023069
O		4.50016138		13.03690447		3.55063487		-0.00038552		-0.00010835		 0.00023069
O		3.27319539		8.10859508		8.92387106		-0.00038552		 0.00010835		 0.00023069
O		4.86087230		5.98840532		1.82260238		 0.00038552		-0.00010835		-0.00023069
O		5.72267194		1.22502944		4.95734803		 0.00039329		 0.00024736		 0.00003165
O		2.41139469		12.87197096		5.78912435		-0.00039329		-0.00024736		-0.00003165
O		3.63836068		8.27352859		0.41588922		-0.00039329		 0.00024736		-0.00003165
O		4.49570490		5.82347076		10.33058422		 0.00039329		-0.00024736		 0.00003165
O		6.88739955		3.38327989		6.15342989		 0.00013361		-0.00014390		 0.00027573
O		1.24666708		10.71371946		4.59304143		-0.00013361		 0.00014390		-0.00027573
O		0.01970003		10.43178009		9.96627868		-0.00013361		-0.00014390		-0.00027573
O		8.11436554		3.66522032		0.78019370		 0.00013361		 0.00014390		 0.00027573
O		6.50173167		1.20952332		7.83310380		 0.00017921		-0.00040616		 0.00004705
O		1.63233497		12.88747709		2.91336858		-0.00017921		 0.00040616		-0.00004705
O		0.40536792		8.25802246		8.28660477		-0.00017921		-0.00040616		-0.00004705
O		7.72869871		5.83897794		2.45986761		 0.00017921		 0.00040616		 0.00004705
O		1.23586097		3.41852310		4.56617544		 0.00015019		-0.00028867		-0.00022855
O		6.89820461		10.67847625		6.18029694		-0.00015019		 0.00028867		 0.00022855
O		8.12517166		10.46702225		0.80705969		-0.00015019		-0.00028867		 0.00022855
O		0.00889392		3.62997710		9.93941269		 0.00015019		 0.00028867		-0.00022855
O		2.73335141		1.23348714		4.12879471		-0.00008722		 0.00068615		-0.00051322
O		5.40071417		12.86351221		6.61767767		 0.00008722		-0.00068615		 0.00051322
O		6.62768122		8.28198628		1.24444148		 0.00008722		 0.00068615		 0.00051322
O		1.50638648		5.81501201		9.50203090		-0.00008722		-0.00068615		-0.00051322
O		0.80050677		1.22784903		6.25014915		 0.00035744		-0.00007029		 0.00041046
O		7.33355880		12.86915032		4.49632429		-0.00035744		 0.00007029		-0.00041046
O		6.10659175		8.27634923		9.86956048		-0.00035744		-0.00007029		-0.00041046
O		2.02747382		5.82065117		0.87691190		 0.00035744		 0.00007029		 0.00041046
O		0.07524997		1.24194589		3.40770640		 0.00030126		 0.00012594		-0.00007877
O		8.05881560		12.85505346		7.33876598		-0.00030126		-0.00012594		 0.00007877
O		9.28578265		8.29044610		1.96552979		-0.00030126		 0.00012594		 0.00007877
O		-1.15171602		5.80655431		8.78094259		 0.00030126		-0.00012594		-0.00007877
O		3.98348606		3.40160560		5.68810742		 0.00012757		-0.00021107		-0.00024421
O		4.15057952		10.69539375		5.05836496		-0.00012757		 0.00021107		 0.00024421
O		2.92361247		10.45010580		10.43160115		-0.00012757		-0.00021107		 0.00024421
O		5.21045311		3.64689355		0.31487123		 0.00012757		 0.00021107		-0.00024421
O		4.65489441		3.36354385		8.37687594		-0.00010347		-0.00023013		 0.00023061
O		3.47917116		10.73345549		2.36959644		 0.00010347		 0.00023013		-0.00023061
O		2.25220517		10.41204512		7.74283369		 0.00010347		-0.00023013		-0.00023061
O		5.88186146		3.68495635		3.00363869		-0.00010347		 0.00023013		 0.00023061
O		4.87379495		1.19965530		1.84946837		-0.00021348		-0.00019439		-0.00002186
O		3.26027062		12.89734510		8.89700507		 0.00021348		 0.00019439		 0.00002186
O		4.48723767		8.24815445		3.52376782		 0.00021348		-0.00019439		 0.00002186
O		3.64682896		5.84884490		7.22270456		-0.00021348		 0.00019439		-0.00002186
O		4.67919493		1.04881654		10.42192901		 0.00023273		-0.00021210		-0.00010331
O		3.45487170		13.04818281		0.32454442		-0.00023273		 0.00021210		 0.00010331
O		2.22790466		8.09731675		5.69777956		-0.00023273		-0.00021210		 0.00010331
O		5.90616198		5.99968260		5.04869282		 0.00023273		 0.00021210		-0.00010331
O		7.85626399		1.06714331		2.35562664		 0.00010149		-0.00010681		 0.00070778
O		0.27780158		13.02985710		8.39084574		-0.00010149		 0.00010681		-0.00070778
O		1.50476863		8.11564246		3.01760849		-0.00010149		-0.00010681		-0.00070778
O		6.62929800		5.98135689		7.72886283		 0.00010149		 0.00010681		 0.00070778
O		-1.10338921		1.00652595		8.83360095		-0.00005152		 0.00003347		-0.00038897
O		9.23745584		13.09047339		1.91287143		 0.00005152		-0.00003347		 0.00038897
O		8.01048880		8.05502616		7.28610762		 0.00005152		 0.00003347		 0.00038897
O		0.12357784		6.04197425		3.46036476		-0.00005152		-0.00003347		-0.00038897
O		9.65343718		1.12212044		0.29982674		 0.00008898		-0.00003550		-0.00027019
O		-1.51937054		12.97487891		10.44664670		-0.00008898		 0.00003550		 0.00027019
O		-0.29240349		8.17062064		5.07340945		-0.00008898		-0.00003550		 0.00027019
O		8.42647013		5.92637870		5.67306293		 0.00008898		 0.00003550		-0.00027019
O		1.35807613		1.03471968		9.49773323		-0.00055943		-0.00014709		-0.00007098
O		6.77599050		13.06227967		1.24874021		 0.00055943		 0.00014709		 0.00007098
O		5.54902345		8.08321988		6.62197534		 0.00055943		-0.00014709		 0.00007098
O		2.58504318		6.01377947		4.12449704		-0.00055943		 0.00014709		-0.00007098
O		2.03629998		1.02767125		0.76407347		 0.00038966		 0.00012598		 0.00019233
O		6.09776666		13.06932810		9.98239891		-0.00038966		-0.00012598		-0.00019233
O		7.32473264		8.07617039		4.60916166		-0.00038966		 0.00012598		-0.00019233
O		0.80933293		6.02082896		6.13731072		 0.00038966		-0.00012598		 0.00019233
O		2.21259335		3.37200155		7.68910065		 0.00025625		 0.00016963		-0.00019581
O		5.92147434		10.72499780		3.05737173		-0.00025625		-0.00016963		 0.00019581
O		4.69450729		10.42050175		8.43060792		-0.00025625		 0.00016963		 0.00019581
O		3.43956040		3.67649760		2.31586446		 0.00025625		-0.00016963		-0.00019581
O		8.35511654		1.20106351		5.67951102		 0.00004289		 0.00021164		 0.00014511
O		-0.22104990		12.89593584		5.06696136		-0.00004289		-0.00021164		-0.00014511
O		-1.44801695		8.24956477		10.44019755		-0.00004289		 0.00021164		-0.00014511
O		9.58208359		5.84743458		0.30627483		 0.00004289		-0.00021164		 0.00014511
O		-0.84821948		3.49182700		6.84442922		-0.00015907		-0.00002337		 0.00059421
O		8.98228717		10.60517341		3.90204422		 0.00015907		 0.00002337		-0.00059421
O		7.75532012		10.54032614		9.27528041		 0.00015907		-0.00002337		-0.00059421
O		0.37874651		3.55667320		1.47119197		-0.00015907		 0.00002337		 0.00059421
O		8.86703150		3.49746617		3.91064168		 0.00026082		-0.00054158		 0.00040897
O		-0.73296592		10.59953424		6.83583070		-0.00026082		 0.00054158		-0.00040897
O		0.49400112		10.54596531		1.46259451		-0.00026082		-0.00054158		-0.00040897
O		7.64006445		3.55103509		9.28387787		 0.00026082		 0.00054158		 0.00040897
H		-1.20765983		2.72072098		6.44788428		 0.00010984		 0.00026528		 0.00008439
H		9.34172647		11.37627837		4.29858916		-0.00010984		-0.00026528		-0.00008439
H		8.11475942		9.76922119		9.67182430		-0.00010984		 0.00026528		-0.00008439
H		0.01930722		4.32777922		1.07464809		 0.00010984		-0.00026528		 0.00008439
H		8.69894806		2.87578753		4.47053298		 0.00008177		 0.00013492		 0.00058868
H		-0.56488143		11.22121182		6.27593940		-0.00008177		-0.00013492		-0.00058868
H		0.66208562		9.92428774		0.90270426		-0.00008177		 0.00013492		-0.00058868
H		7.47198101		4.17271161		9.84376918		 0.00008177		-0.00013492		 0.00058868
