# total energy = -117592.481552 eV

CRYSTAL
PRIMVEC
		10.58799967		0.00000000		0.00000000
		0.00000000		14.09700041		0.00000000
		-2.45393833		0.00000000		9.03680478
PRIMECORD
   156 1
Si		8.18330189		0.01395604		0.67007850		 0.00025934		 0.00009948		 0.00001598
Si		-0.04923632		14.08304331		8.36672628		-0.00025934		-0.00009948		-0.00001598
Si		1.17773073		7.06245625		3.84832389		-0.00025934		 0.00009948		-0.00001598
Si		6.95633484		7.03454416		5.18848301		 0.00025934		-0.00009948		 0.00001598
Si		3.61492732		2.67335451		6.08701137		-0.00003891		 0.00013726		 0.00020222
Si		4.51914037		11.42364484		2.94979447		 0.00003891		-0.00013726		-0.00020222
Si		3.29217333		9.72185471		7.46819792		 0.00003891		 0.00013726		-0.00020222
Si		4.84189437		4.37514464		1.56860898		-0.00003891		-0.00013726		 0.00020222
Si		1.21183891		1.76917322		3.85645653		-0.00021908		 0.00010430		 0.00032458
Si		6.92222666		12.32782613		5.18034931		 0.00021908		-0.00010430		-0.00032458
Si		8.14919371		8.81767236		0.66194586		 0.00021908		 0.00010430		-0.00032458
Si		-0.01512708		5.27932699		8.37486104		-0.00021908		-0.00010430		 0.00032458
Si		6.86524205		1.73858343		5.17808983		-0.00036107		 0.00012084		 0.00019956
Si		1.26882459		12.35841698		3.85871601		 0.00036107		-0.00012084		-0.00019956
Si		0.04185754		8.78708257		8.37711946		 0.00036107		 0.00012084		-0.00019956
Si		8.09220909		5.30991678		0.65968744		-0.00036107		-0.00012084		 0.00019956
Mg		4.06703279		0.00000000		4.51840239		0.00000000		0.00000000		0.00000000
Mg		5.29399984		7.04850020		0.00000000		0.00000000		0.00000000		-0.00000000
Mg		4.39572559		2.46006772		3.22062809		-0.00022205		-0.00036602		-0.00024291
Mg		3.73834104		11.63693268		5.81617880		 0.00022205		 0.00036602		 0.00024291
Mg		4.96530809		9.50856793		1.29777641		 0.00022205		-0.00036602		 0.00024291
Mg		3.16875854		4.58843248		7.73903048		-0.00022205		 0.00036602		-0.00024291
Mg		5.29399984		0.00000000		0.00000000		0.00000000		0.00000000		0.00000000
Mg		4.06703279		7.04850020		4.51840239		0.00000000		-0.00000000		0.00000000
Mg		6.19165257		0.03510240		2.64904870		 0.00025599		 0.00004636		 0.00003303
Mg		1.94241301		14.06189907		6.38775714		-0.00025599		-0.00004636		-0.00003303
Mg		3.16938006		7.08360048		1.86935369		-0.00025599		 0.00004636		-0.00003303
Mg		4.96468552		7.01339781		7.16745320		 0.00025599		-0.00004636		 0.00003303
Mg		0.42170944		0.00493401		1.37720865		 0.00016750		-0.00026377		 0.00043233
Mg		7.71235825		14.09206534		7.65959719		-0.00016750		 0.00026377		-0.00043233
Mg		8.93932424		7.05343421		3.14119374		-0.00016750		-0.00026377		-0.00043233
Mg		-0.80525761		7.04356620		5.89561315		 0.00016750		 0.00026377		 0.00043233
Mg		-0.86838750		0.00493401		5.73584130		 0.00019870		 0.00020245		 0.00025148
Mg		9.00245519		14.09206534		3.30096454		-0.00019870		-0.00020245		-0.00025148
Mg		7.77548814		7.05343421		7.81936799		-0.00019870		 0.00020245		-0.00025148
Mg		0.35857849		7.04356620		1.21743891		 0.00019870		-0.00020245		 0.00025148
Mg		3.19404057		0.03904854		1.94697961		 0.00007583		-0.00017864		-0.00000684
Mg		4.94002607		14.05795081		7.08982728		-0.00007583		 0.00017864		 0.00000684
Mg		6.16699311		7.08754875		2.57142278		-0.00007583		-0.00017864		 0.00000684
Mg		1.96707352		7.00945060		6.46538306		 0.00007583		 0.00017864		-0.00000684
Mg		6.57114024		2.39564398		1.11704032		 0.00017455		 0.00012773		 0.00006588
Mg		1.56292640		11.70135537		7.91976658		-0.00017455		-0.00012773		-0.00006588
Mg		2.78989239		9.44414419		3.40136419		-0.00017455		 0.00012773		-0.00006588
Mg		5.34417319		4.65285622		5.63544271		 0.00017455		-0.00012773		 0.00006588
Mg		-1.63791484		2.43920407		8.76308169		-0.00002910		 0.00003543		 0.00012223
Mg		9.77198042		11.65779528		0.27372520		 0.00002910		-0.00003543		-0.00012223
Mg		8.54501337		9.48770322		4.79212759		 0.00002910		 0.00003543		-0.00012223
Mg		-0.41094780		4.60929613		4.24467825		-0.00002910		-0.00003543		 0.00012223
Mg		0.46893509		2.49798759		6.79540784		 0.00028558		-0.00010481		 0.00011009
Mg		7.66513154		11.59901070		2.24139906		-0.00028558		 0.00010481		-0.00011009
Mg		6.43816449		9.54648885		6.75980251		-0.00028558		-0.00010481		-0.00011009
Mg		1.69590108		4.55051050		2.27700439		 0.00028558		 0.00010481		 0.00011009
Mg		6.00405545		2.48008540		8.08667687		 0.00004757		-0.00017179		-0.00004825
Mg		2.13001119		11.61691501		0.95013003		-0.00004757		 0.00017179		 0.00004825
Mg		0.90304414		9.52858560		5.46853242		-0.00004757		-0.00017179		 0.00004825
Mg		7.23102249		4.56841481		3.56827342		 0.00004757		 0.00017179		-0.00004825
Mg		3.60529224		2.37633041		0.40755964		-0.00017237		-0.00019611		 0.00021369
Mg		4.52877334		11.72066894		8.62924726		 0.00017237		 0.00019611		-0.00021369
Mg		5.75574038		9.42483062		4.11084275		 0.00017237		-0.00019611		-0.00021369
Mg		2.37832519		4.67216873		4.92596309		-0.00017237		 0.00019611		 0.00021369
Mg		9.40458318		2.50221643		1.79669778		-0.00006336		-0.00038864		 0.00038338
Mg		-1.27051655		11.59478186		7.24010912		 0.00006336		 0.00038864		-0.00038338
Mg		-0.04354950		9.55071770		2.72170567		 0.00006336		-0.00038864		-0.00038338
Mg		8.17761719		4.54628165		6.31510123		-0.00006336		 0.00038864		 0.00038338
O		3.63390525		1.06009382		6.05104605		-0.00028294		-0.00023174		 0.00021894
O		4.50016138		13.03690447		2.98576085		 0.00028294		 0.00023174		-0.00021894
O		3.27319539		8.10859508		7.50416324		 0.00028294		-0.00023174		-0.00021894
O		4.86087230		5.98840532		1.53264260		-0.00028294		 0.00023174		 0.00021894
O		5.72267194		1.22502944		4.16867864		-0.00003989		-0.00023511		 0.00011069
O		2.41139469		12.87197096		4.86812825		 0.00003989		 0.00023511		-0.00011069
O		3.63836068		8.27352859		0.34972481		 0.00003989		-0.00023511		-0.00011069
O		4.49570490		5.82347076		8.68708209		-0.00003989		 0.00023511		 0.00011069
O		6.88739955		3.38327989		5.17447614		 0.00030099		 0.00018071		-0.00026463
O		1.24666708		10.71371946		3.86233075		-0.00030099		-0.00018071		 0.00026463
O		0.01970003		10.43178009		8.38073526		-0.00030099		 0.00018071		 0.00026463
O		8.11436554		3.66522032		0.65607164		 0.00030099		-0.00018071		-0.00026463
O		6.50173167		1.20952332		6.58692906		-0.00052921		-0.00041353		-0.00023260
O		1.63233497		12.88747709		2.44987783		 0.00052921		 0.00041353		 0.00023260
O		0.40536792		8.25802246		6.96828128		 0.00052921		-0.00041353		 0.00023260
O		7.72869871		5.83897794		2.06852456		-0.00052921		 0.00041353		-0.00023260
O		1.23586097		3.41852310		3.83973914		-0.00028573		 0.00026700		 0.00040186
O		6.89820461		10.67847625		5.19706776		 0.00028573		-0.00026700		-0.00040186
O		8.12517166		10.46702225		0.67866431		 0.00028573		 0.00026700		-0.00040186
O		0.00889392		3.62997710		8.35814259		-0.00028573		-0.00026700		 0.00040186
O		2.73335141		1.23348714		3.47194062		-0.00003095		 0.00007652		 0.00014739
O		5.40071417		12.86351221		5.56486628		 0.00003095		-0.00007652		-0.00014739
O		6.62768122		8.28198628		1.04646177		 0.00003095		 0.00007652		-0.00014739
O		1.50638648		5.81501201		7.99034407		-0.00003095		-0.00007652		 0.00014739
O		0.80050677		1.22784903		5.25580680		-0.00038141		 0.00008199		-0.00012391
O		7.33355880		12.86915032		3.78100009		 0.00038141		-0.00008199		 0.00012391
O		6.10659175		8.27634923		8.29940248		 0.00038141		 0.00008199		 0.00012391
O		2.02747382		5.82065117		0.73740441		-0.00038141		-0.00008199		-0.00012391
O		0.07524997		1.24194589		2.86557117		-0.00004453		 0.00005863		 0.00015805
O		8.05881560		12.85505346		6.17123467		 0.00004453		-0.00005863		-0.00015805
O		9.28578265		8.29044610		1.65283228		 0.00004453		 0.00005863		-0.00015805
O		-1.15171602		5.80655431		7.38397462		-0.00004453		-0.00005863		 0.00015805
O		3.98348606		3.40160560		4.78318179		-0.00002989		-0.00040108		 0.00025679
O		4.15057952		10.69539375		4.25362511		 0.00002989		 0.00040108		-0.00025679
O		2.92361247		10.45010580		8.77202855		 0.00002989		-0.00040108		-0.00025679
O		5.21045311		3.64689355		0.26477834		-0.00002989		 0.00040108		 0.00025679
O		4.65489441		3.36354385		7.04419089		 0.00021772		 0.00035339		 0.00001502
O		3.47917116		10.73345549		1.99261601		-0.00021772		-0.00035339		-0.00001502
O		2.25220517		10.41204512		6.51101840		-0.00021772		 0.00035339		-0.00001502
O		5.88186146		3.68495635		2.52578744		 0.00021772		-0.00035339		 0.00001502
O		4.87379495		1.19965530		1.55523421		 0.00017653		 0.00004352		 0.00006921
O		3.26027062		12.89734510		7.48157163		-0.00017653		-0.00004352		-0.00006921
O		4.48723767		8.24815445		2.96316924		-0.00017653		 0.00004352		-0.00006921
O		3.64682896		5.84884490		6.07363766		 0.00017653		-0.00004352		 0.00006921
O		4.67919493		1.04881654		8.76389485		-0.00006742		 0.00013466		 0.00020843
O		3.45487170		13.04818281		0.27291204		 0.00006742		-0.00013466		-0.00020843
O		2.22790466		8.09731675		4.79131443		 0.00006742		 0.00013466		-0.00020843
O		5.90616198		5.99968260		4.24549140		-0.00006742		-0.00013466		 0.00020843
O		7.85626399		1.06714331		1.98086757		 0.00014403		 0.00009719		 0.00052832
O		0.27780158		13.02985710		7.05593827		-0.00014403		-0.00009719		-0.00052832
O		1.50476863		8.11564246		2.53753482		-0.00014403		 0.00009719		-0.00052832
O		6.62929800		5.98135689		6.49927207		 0.00014403		-0.00009719		 0.00052832
O		-1.10338921		1.00652595		7.42825469		 0.00004749		 0.00003315		 0.00003959
O		9.23745584		13.09047339		1.60855114		-0.00004749		-0.00003315		-0.00003959
O		8.01048880		8.05502616		6.12695459		-0.00004749		 0.00003315		-0.00003959
O		0.12357784		6.04197425		2.90985230		 0.00004749		-0.00003315		 0.00003959
O		9.65343718		1.12212044		0.25212674		-0.00016042		-0.00034099		-0.00002322
O		-1.51937054		12.97487891		8.78468016		 0.00016042		 0.00034099		 0.00002322
O		-0.29240349		8.17062064		4.26627565		 0.00016042		-0.00034099		 0.00002322
O		8.42647013		5.92637870		4.77053019		-0.00016042		 0.00034099		-0.00002322
O		1.35807613		1.03471968		7.98672932		 0.00021681		 0.00029904		-0.00021043
O		6.77599050		13.06227967		1.05007651		-0.00021681		-0.00029904		 0.00021043
O		5.54902345		8.08321988		5.56847996		-0.00021681		 0.00029904		 0.00021043
O		2.58504318		6.01377947		3.46832693		 0.00021681		-0.00029904		-0.00021043
O		2.03629998		1.02767125		0.64251688		 0.00005952		-0.00010787		 0.00027581
O		6.09776666		13.06932810		8.39429002		-0.00005952		 0.00010787		-0.00027581
O		7.32473264		8.07617039		3.87588551		-0.00005952		-0.00010787		-0.00027581
O		0.80933293		6.02082896		5.16092033		 0.00005952		 0.00010787		 0.00027581
O		2.21259335		3.37200155		6.46583517		 0.00000631		 0.00036717		-0.00010708
O		5.92147434		10.72499780		2.57097173		-0.00000631		-0.00036717		 0.00010708
O		4.69450729		10.42050175		7.08937518		-0.00000631		 0.00036717		 0.00010708
O		3.43956040		3.67649760		1.94743172		 0.00000631		-0.00036717		-0.00010708
O		8.35511654		1.20106351		4.77595336		-0.00004434		 0.00038016		 0.00006732
O		-0.22104990		12.89593584		4.26085353		 0.00004434		-0.00038016		-0.00006732
O		-1.44801695		8.24956477		8.77925804		 0.00004434		 0.00038016		-0.00006732
O		9.58208359		5.84743458		0.25754886		-0.00004434		-0.00038016		 0.00006732
O		-0.84821948		3.49182700		5.75554133		 0.00003727		-0.00011960		 0.00028127
O		8.98228717		10.60517341		3.28126345		-0.00003727		 0.00011960		-0.00028127
O		7.75532012		10.54032614		7.79966796		-0.00003727		-0.00011960		-0.00028127
O		0.37874651		3.55667320		1.23713894		 0.00003727		 0.00011960		 0.00028127
O		8.86703150		3.49746617		3.28849400		-0.00009234		 0.00045353		-0.00028547
O		-0.73296592		10.59953424		5.74831290		 0.00009234		-0.00045353		 0.00028547
O		0.49400112		10.54596531		1.22990945		 0.00009234		 0.00045353		 0.00028547
O		7.64006445		3.55103509		7.80689639		-0.00009234		-0.00045353		-0.00028547
H		-1.20765983		2.72072098		5.42208393		 0.00002359		 0.00054309		 0.00065671
H		9.34172647		11.37627837		3.61472191		-0.00002359		-0.00054309		-0.00065671
H		8.11475942		9.76922119		8.13312536		-0.00002359		 0.00054309		-0.00065671
H		0.01930722		4.32777922		0.90368048		 0.00002359		-0.00054309		 0.00065671
H		8.69894806		2.87578753		3.75931164		 0.00013820		-0.00064597		 0.00093845
H		-0.56488143		11.22121182		5.27749526		-0.00013820		 0.00064597		-0.00093845
H		0.66208562		9.92428774		0.75909181		-0.00013820		-0.00064597		-0.00093845
H		7.47198101		4.17271161		8.27771508		 0.00013820		 0.00064597		 0.00093845
