# total energy = -41266.3760598 eV	

CRYSTAL	
PRIMVEC	
		5.69780014		0.00000000		0.00000000	
		0.00000000		11.46200244		-1.37543756	
		0.00000000		-0.99085314		8.25709812	
PRIMCOORD
   56 1	
Mg		0.00000000		0.00000000		0.00000000		0.00000000		0.00000000		0.00000000	
Mg		0.00000000		5.73100008		-0.68771992		0.00000000		0.00000000		0.00000000	
Mg		2.84890007		5.23557408		3.44083028		0.00000000		0.00000000		0.00000000	
Mg		2.84890007		-0.49542600		4.12855020		0.00000000		0.00000000		0.00000000	
Mg		0.00000000		1.90457232		7.66387622		0.00000000		-0.00044906		-0.00055816	
Mg		0.00000000		8.56657642		-0.78221622		0.00000000		 0.00044906		 0.00055816	
Mg		2.84890007		8.13099840		2.84760610		0.00000000		-0.00044907		-0.00055817	
Mg		2.84890007		2.34015033		4.03405503		0.00000000		 0.00044907		 0.00055817	
Mg		1.42445004		1.20681515		1.88973182		 0.00012485		-0.00034401		-0.00040778	
Mg		4.27335011		9.26433301		4.99192817		-0.00012485		 0.00034401		 0.00040778	
Mg		4.27335011		4.02875893		1.55109789		 0.00012486		 0.00034401		 0.00040776	
Mg		1.42445004		6.44238923		5.33056211		-0.00012486		-0.00034401		-0.00040776	
Mg		4.27335011		6.44238923		5.33056211		 0.00012486		-0.00034401		-0.00040776	
Mg		1.42445004		4.02875893		1.55109789		-0.00012486		 0.00034401		 0.00040776	
Mg		1.42445004		9.26433301		4.99192817		 0.00012485		 0.00034401		 0.00040778	
Mg		4.27335011		1.20681515		1.88973182		-0.00012485		-0.00034401		-0.00040778	
Si		0.00000000		0.76343400		4.92558697		0.00000000		 0.00006558		 0.00061307	
Si		0.00000000		9.70771531		1.95607302		0.00000000		-0.00006558		-0.00061307	
Si		0.00000000		3.74584606		4.56769789		0.00000000		 0.00045503		 0.00000951	
Si		0.00000000		6.72530210		2.31396210		0.00000000		-0.00045503		-0.00000951	
Si		2.84890007		6.98985894		0.10931685		0.00000000		 0.00006564		 0.00061296	
Si		2.84890007		3.48128922		6.77234314		0.00000000		-0.00006564		-0.00061296	
Si		2.84890007		9.97227214		-0.24857223		0.00000000		 0.00045490		 0.00000931	
Si		2.84890007		0.49887602		7.13023336		0.00000000		-0.00045490		-0.00000931	
O		0.00000000		2.64929588		1.45783914		0.00000000		 0.00048872		-0.00008895	
O		0.00000000		7.82185229		5.42382085		0.00000000		-0.00048872		 0.00008895	
O		2.84890007		7.88486996		4.89866886		0.00000000		 0.00048872		-0.00008898	
O		2.84890007		2.58627821		1.98299114		0.00000000		-0.00048872		 0.00008898	
O		0.00000000		2.15634728		5.56574621		0.00000000		 0.00059098		 0.00016367	
O		0.00000000		8.31480145		1.31591378		0.00000000		-0.00059098		-0.00016367	
O		2.84890007		8.38277336		0.74947610		0.00000000		 0.00059097		 0.00016371	
O		2.84890007		2.08837480		6.13218390		0.00000000		-0.00059097		-0.00016371	
O		0.00000000		11.09093435		0.75653624		0.00000000		 0.00024715		-0.00056744	
O		0.00000000		-0.61978619		6.12512433		0.00000000		-0.00024715		 0.00056744	
O		0.00000000		5.59375888		1.41619677		0.00000000		-0.00002465		 0.00006673	
O		0.00000000		4.87738928		5.46546322		0.00000000		 0.00002465		-0.00006673	
O		2.84890007		4.86450827		5.57280636		0.00000000		 0.00024720		-0.00056751	
O		2.84890007		5.60663990		1.30885421		0.00000000		-0.00024720		 0.00056751	
O		2.84890007		-0.63266720		6.23246689		0.00000000		-0.00002479		 0.00006660	
O		2.84890007		11.10381537		0.64919310		0.00000000		 0.00002479		-0.00006660	
O		1.48199782		0.42122583		8.03149714		 0.00045646		 0.00032931		 0.00048851	
O		4.21580232		10.04992233		-1.14983715		-0.00045646		-0.00032931		-0.00048851	
O		4.21580232		3.34174383		7.68103514		-0.00006188		 0.00020350		-0.00053288	
O		1.48199782		7.12940433		-0.79937515		 0.00006188		-0.00020350		 0.00053288	
O		4.21580232		7.12940433		-0.79937515		-0.00006188		-0.00020350		 0.00053288	
O		1.48199782		3.34174383		7.68103514		 0.00006188		 0.00020350		-0.00053288	
O		1.48199782		10.04992233		-1.14983715		 0.00045646		-0.00032931		-0.00048851	
O		4.21580232		0.42122583		8.03149714		-0.00045646		 0.00032931		 0.00048851	
O		4.33089789		6.64765191		3.21522703		 0.00045642		 0.00032932		 0.00048854	
O		1.36690225		3.82349625		3.66643297		-0.00045642		-0.00032932		-0.00048854	
O		1.36690225		9.56816934		2.86476502		-0.00006184		 0.00020350		-0.00053286	
O		4.33089789		0.90297825		4.01689497		 0.00006184		-0.00020350		 0.00053286	
O		1.36690225		0.90297825		4.01689497		-0.00006184		-0.00020350		 0.00053286	
O		4.33089789		9.56816934		2.86476502		 0.00006184		 0.00020350		-0.00053286	
O		4.33089789		3.82349625		3.66643297		 0.00045642		-0.00032932		-0.00048854	
O		1.36690225		6.64765191		3.21522703		-0.00045642		 0.00032932		 0.00048854	
