# total energy = -22460.4121259 eV	

CRYSTAL	
PRIMVEC	
		9.73970004		0.00000000		0.00000000	
		0.00000000		8.91739665		-1.42678814	
		-1.43536881		-0.80804447		5.05028771	
PRIMCOORD
   40 1	
Mg		-0.35884269		7.89570114		-0.03306336		-0.00019352		 0.00072174		 0.00046541	
Mg		-1.07652807		0.21365396		3.65656195		 0.00019352		-0.00072174		-0.00046541	
Mg		4.51100733		3.43700087		0.68032876		-0.00019669		 0.00073134		 0.00046494	
Mg		3.79332195		4.67235423		2.94316983		 0.00019669		-0.00073134		-0.00046494	
Ca		-0.35884269		2.48640614		0.83242392		-0.00025248		-0.00053000		 0.00023202	
Ca		-1.07652807		5.62294895		2.79107467		 0.00025248		 0.00053000		-0.00023202	
Ca		4.51100733		6.94510739		0.11903180		-0.00024469		-0.00054197		 0.00023838	
Ca		3.79332195		1.16424771		3.50446680		 0.00024469		 0.00054197		-0.00023838	
Si		2.45818828		0.64567880		1.02537127		-0.00029997		-0.00060941		-0.00030206	
Si		5.84614100		7.46367629		2.59812830		 0.00029997		 0.00060941		 0.00030206	
Si		6.56382638		0.61232325		1.23384663		-0.00030350		 0.00012324		-0.00003755	
Si		1.74050290		7.49703184		2.38965196		 0.00030350		-0.00012324		 0.00003755	
Si		7.32803928		5.10438005		0.31197915		-0.00035330		-0.00063245		-0.00030539	
Si		0.97629098		3.00497505		3.31152042		 0.00035330		 0.00063245		 0.00030539	
Si		1.69397636		5.07102255		0.52045548		-0.00007548		 0.00006694		 0.00006569	
Si		6.61035293		3.03833157		3.10304409		 0.00007548		-0.00006694		-0.00006569	
O		0.92170288		0.66029322		0.59244647		 0.00051464		-0.00022430		 0.00004080	
O		7.38262640		7.44906187		3.03105309		-0.00051464		 0.00022430		-0.00004080	
O		8.10031081		0.48552892		1.68472072		-0.00025742		 0.00054980		-0.00031616	
O		0.20401847		7.62382618		1.93877787		 0.00025742		-0.00054980		 0.00031616	
O		5.79155387		5.11899350		-0.12094565		 0.00054294		-0.00021532		 0.00004702	
O		2.51277638		2.99036160		3.74444521		-0.00054294		 0.00021532		-0.00004702	
O		3.23046079		4.94422919		0.97132860		-0.00043261		 0.00056525		-0.00035684	
O		5.07386849		3.16512591		2.65216999		 0.00043261		-0.00056525		 0.00035684	
O		3.05934400		1.97428005		1.24781141		 0.00024786		 0.00070200		-0.00056521	
O		5.24498528		6.13507504		2.37568816		-0.00024786		-0.00070200		 0.00056521	
O		5.96267066		2.08378642		0.56339684		 0.00022129		-0.00020070		-0.00018616	
O		2.34165764		6.02556867		3.06010175		-0.00022129		 0.00020070		 0.00018616	
O		7.92919402		6.43298033		0.53441929		 0.00027553		 0.00070635		-0.00057250	
O		0.37513526		1.67637477		3.08908028		-0.00027553		-0.00070635		 0.00057250	
O		1.09282064		6.54248670		-0.14999625		 0.00017170		-0.00014156		-0.00021843	
O		7.21150767		1.56686937		3.77349387		-0.00017170		 0.00014156		 0.00021843	
O		1.98719392		-0.64883252		5.00231968		-0.00031233		 0.00031610		 0.00090340	
O		6.31713633		8.75818762		-1.37882109		 0.00031233		-0.00031610		-0.00090340	
O		5.59944998		-0.25219590		2.52333811		 0.00010686		-0.00035148		 0.00014264	
O		2.70487930		8.36155099		1.10016145		-0.00010686		 0.00035148		-0.00014264	
O		6.85704394		3.80986678		4.28892756		-0.00029349		 0.00033982		 0.00093557	
O		1.44728534		4.29948832		-0.66542897		 0.00029349		-0.00033982		-0.00093557	
O		0.72959996		4.20650438		1.80994599		 0.00007881		-0.00034048		 0.00014025	
O		7.57472933		3.90285072		1.81355260		-0.00007881		 0.00034048		-0.00014025	
