# total energy = -4139.02091972 eV

CRYSTAL
PRIMVEC
		3.63856581		0.00000000		0.00000000
		-1.81928290		2.86462830		0.00000000
		0.00000000		0.00000000		4.98288124
PRIMECORD
   4 1
Mg		0.00000000		1.90975184		0.01076215		0.00000000		 0.00083078		-0.00012034
Mg		1.81928290		0.95487610		2.50220204		0.00000000		-0.00083078		-0.00012034
O		0.00000000		1.90975184		2.00531186		0.00000000		 0.00010044		 0.00012034
O		1.81928290		0.95487610		4.49675284		0.00000000		-0.00010044		 0.00012034
