# total energy = -9075.38797875 eV	

CRYSTAL	
PRIMVEC	
		5.11310008		0.00000000		0.00000000	
		0.00000000		5.18980170		0.00000000	
		-0.00383994		0.00000000		6.96378666	
PRIMCOORD
   28 1	
Mg		3.87988016		2.66755698		1.74791019		-0.00002801		-0.00029894		-0.00011932	
Mg		1.22938202		0.07265715		5.21587390		 0.00002801		-0.00029894		 0.00011932	
Si		1.27731580		0.06746684		1.74094615		 0.00021384		 0.00016708		 0.00002667	
Si		3.83194690		2.66236718		5.22283795		-0.00021384		 0.00016708		-0.00002667	
O		1.85420490		5.07043433		3.35654415		-0.00019178		-0.00021395		-0.00009188	
O		3.25505627		2.47553399		3.60723995		 0.00019178		-0.00021395		 0.00009188	
O		4.40885184		2.85439017		6.81058130		-0.00000582		 0.00005801		-0.00015071	
O		0.70040983		0.25948983		0.15320280		 0.00000582		 0.00005801		 0.00015071	
O		4.63492194		4.16740921		4.82590185		-0.00032249		 0.00004451		-0.00010324	
O		0.47434025		1.57250888		2.13788225		 0.00032249		 0.00004451		 0.00010324	
O		2.29781695		3.43045810		5.58495485		-0.00010754		 0.00031290		-0.00005935	
O		2.81144524		0.83555776		1.37882925		 0.00010754		 0.00031290		 0.00005935	
O		4.84599122		4.35424189		2.22841122		 0.00053475		 0.00018125		 0.00038212	
O		0.26327097		1.75934206		4.73537288		-0.00053475		 0.00018125		-0.00038212	
O		1.99853084		3.65880915		1.25348109		-0.00001370		-0.00034738		-0.00014957	
O		3.11073084		1.06390881		5.71030301		 0.00001370		-0.00034738		 0.00014957	
H		2.33481023		4.16740921		3.40528988		-0.00024228		-0.00008616		 0.00024381	
H		2.77445196		1.57250888		3.55849421		 0.00024228		-0.00008616		-0.00024381	
H		4.92013526		3.62766986		6.85932704		-0.00018368		 0.00007878		 0.00013357	
H		0.18912692		1.03277003		0.10445706		 0.00018368		 0.00007878		-0.00013357	
H		1.56163791		2.83363098		5.38996934		 0.00003780		 0.00011785		 0.00003513	
H		3.54762427		0.23873115		1.57381527		-0.00003780		 0.00011785		-0.00003513	
H		3.95984700		4.93549911		5.09052626		 0.00014938		 0.00021172		 0.00001478	
H		1.14941518		2.34059979		1.87325784		-0.00014938		 0.00021172		-0.00001478	
H		4.77904131		4.42170924		3.09888429		-0.00019188		-0.00014871		-0.00040773	
H		0.33022088		1.82680993		3.86490032		 0.00019188		-0.00014871		 0.00040773	
H		2.10639424		3.59653108		0.36908095		 0.00020589		-0.00007696		 0.00009765	
H		3.00286794		1.00163125		6.59470417		-0.00020589		-0.00007696		-0.00009765	
