# total energy = -2552.6332783 eV

CRYSTAL
PRIMVEC
		3.14200087		0.00000000		0.50272154
		-1.57099884		2.72105260		-0.25135918
		0.76256065		0.00000000		4.76599849
PRIMECORD
   5 1
Mg		0.00000000		0.00000000		0.00000000		0.00000000		0.00000000		0.00000000
O		0.16898293		1.81403496		1.05614575		 0.00019828		-0.00052619		-0.00065677
O		2.16457688		0.90701700		3.96121351		-0.00019828		 0.00052619		 0.00065677
H		0.32813008		1.81403496		2.05080993		-0.00013148		-0.00016662		 0.00058753
H		2.00542972		0.90701700		2.96654965		 0.00013148		 0.00016662		-0.00058753
