# total energy = -10317.2201183 eV

CRYSTAL
PRIMVEC
		5.10449989		0.00000000		0.00000000
		0.00000000		8.84999815		0.00000000
		0.00000000		0.00000000		2.74999827
PRIMECORD
   14 1
Si		0.00000000		0.00000000		0.00000000		0.00000000		0.00000000		0.00000000
Si		2.55224995		4.42500010		0.00000000		0.00000000		0.00000000		0.00000000
Mg		0.41805905		2.94616471		1.37500016		 0.00015175		 0.00014452		-0.00000000
Mg		4.68644084		5.90383497		1.37500016		-0.00015175		-0.00014452		-0.00000000
Mg		2.13419089		7.37116481		1.37500016		-0.00015175		 0.00014452		0.00000000
Mg		2.97030900		1.47883487		1.37500016		 0.00015175		-0.00014452		0.00000000
O		1.10461378		0.39647978		1.37500016		 0.00000348		-0.00019809		-0.00000000
O		3.99988612		8.45352093		1.37500016		-0.00000348		 0.00019809		0.00000000
O		1.44763617		4.82147988		1.37500016		-0.00000348		-0.00019809		-0.00000000
O		3.65686372		4.02851981		1.37500016		 0.00000348		 0.00019809		-0.00000000
O		2.00351621		2.73199470		0.00000000		-0.00052219		-0.00049343		-0.00000000
O		3.10098369		6.11800600		0.00000000		 0.00052219		 0.00049343		-0.00000000
O		0.54873374		7.15699480		0.00000000		 0.00052219		-0.00049343		-0.00000000
O		4.55576615		1.69300489		0.00000000		-0.00052219		 0.00049343		-0.00000000
