# total energy = -10317.0411559 eV

CRYSTAL
PRIMVEC
		5.22899994		0.00000000		0.00000000
		0.00000000		8.84999874		0.00000000
		0.00000000		0.00000000		2.74999905
PRIMECORD
   14 1
Si		0.00000000		0.00000000		0.00000000		0.00000000		0.00000000		0.00000000
Si		2.61449997		4.42499989		0.00000000		0.00000000		0.00000000		0.00000000
Mg		0.42825510		2.94616498		1.37500005		 0.00018259		 0.00014269		-0.00000000
Mg		4.80074485		5.90383480		1.37500005		-0.00018259		-0.00014269		-0.00000000
Mg		2.18624488		7.37116487		1.37500005		-0.00018259		 0.00014269		0.00000000
Mg		3.04275507		1.47883491		1.37500005		 0.00018259		-0.00014269		0.00000000
O		1.13155611		0.39648003		1.37500005		-0.00009011		-0.00024706		-0.00000000
O		4.09744383		8.45352080		1.37500005		 0.00009011		 0.00024706		0.00000000
O		1.48294386		4.82147992		1.37500005		 0.00009011		-0.00024706		0.00000000
O		3.74605608		4.02851986		1.37500005		-0.00009011		 0.00024706		0.00000000
O		2.05238300		2.73199508		0.00000000		-0.00041201		-0.00031809		0.00000000
O		3.17661694		6.11800575		0.00000000		 0.00041201		 0.00031809		0.00000000
O		0.56211697		7.15699497		0.00000000		 0.00041201		-0.00031809		0.00000000
O		4.66688297		1.69300482		0.00000000		-0.00041201		 0.00031809		0.00000000
