# total energy = -10316.6424144 eV

CRYSTAL
PRIMVEC
		5.47800004		0.00000000		0.00000000
		0.00000000		8.84999940		0.00000000
		0.00000000		0.00000000		2.74999984
PRIMECORD
   14 1
Si		0.00000000		0.00000000		0.00000000		0.00000000		0.00000000		0.00000000
Si		2.73900002		4.42500025		0.00000000		0.00000000		0.00000000		0.00000000
Mg		0.44864820		2.94616483		1.37499992		 0.00010249		 0.00051414		-0.00000000
Mg		5.02935184		5.90383511		1.37499992		-0.00010249		-0.00051414		0.00000000
Mg		2.29035182		7.37116508		1.37499992		-0.00010249		 0.00051414		0.00000000
Mg		3.18764822		1.47883487		1.37499992		 0.00010249		-0.00051414		0.00000000
O		1.18543921		0.39648011		1.37499992		 0.00029203		-0.00027511		0.00000000
O		4.29256083		8.45352093		1.37499992		-0.00029203		 0.00027511		0.00000000
O		1.55356081		4.82147981		1.37499992		-0.00029203		-0.00027511		0.00000000
O		3.92443923		4.02852013		1.37499992		 0.00029203		 0.00027511		-0.00000000
O		2.15011502		2.73199475		0.00000000		-0.00051283		-0.00076655		-0.00000000
O		3.32788502		6.11800629		0.00000000		 0.00051283		 0.00076655		-0.00000000
O		0.58888500		7.15699500		0.00000000		 0.00051283		-0.00076655		0.00000000
O		4.88911504		1.69300495		0.00000000		-0.00051283		 0.00076655		0.00000000
