# total energy = -24716.1216916 eV	

CRYSTAL	
PRIMVEC	
		9.68100001		0.00000000		0.00000000	
		0.00000000		8.73899998		0.00000000	
		1.61441324		0.00000000		4.94515161	
PRIMCOORD
   40 1	
Si		2.35750744		3.58299038		0.99397538		-0.00064374		 0.00018205		 0.00045000	
Si		8.93790581		5.15600960		3.95117236		 0.00064374		-0.00018205		-0.00045000	
Si		3.29020015		7.95249037		1.47859946		 0.00064374		 0.00018205		-0.00045000	
Si		8.00521310		0.78650961		3.46654828		-0.00064374		-0.00018205		 0.00045000	
Si		8.13069919		3.58299038		1.47859946		 0.00054737		-0.00006436		-0.00055024	
Si		3.16471309		5.15600960		3.46654828		-0.00054737		 0.00006436		 0.00055024	
Si		7.19800744		7.95249037		0.99397538		-0.00054737		-0.00006436		 0.00055024	
Si		4.09740580		0.78650961		3.95117236		 0.00054737		 0.00006436		-0.00055024	
O		4.03384133		3.67037980		0.49451516		-0.00073237		 0.00028073		-0.00022768	
O		7.26157192		5.06862115		4.45063161		 0.00073237		-0.00028073		 0.00022768	
O		1.61386530		8.03987979		1.97805871		 0.00073237		 0.00028073		 0.00022768	
O		9.68154698		0.69912019		2.96708806		-0.00073237		-0.00028073		-0.00022768	
O		8.60171275		2.18475000		0.78627824		-0.00052635		-0.00045383		 0.00008611	
O		2.69369856		6.55424999		4.15886854		 0.00052635		 0.00045383		-0.00008611	
O		6.72699291		6.55424999		1.68629467		 0.00052635		-0.00045383		-0.00008611	
O		4.56842034		2.18475000		3.25885211		-0.00052635		 0.00045383		 0.00008611	
O		2.98584210		4.28210960		4.69788919		-0.00013606		-0.00003981		-0.00036921	
O		8.30957115		4.45689038		0.24725661		 0.00013606		 0.00003981		 0.00036921	
O		4.27627680		8.65160959		2.71983145		 0.00013606		-0.00003981		 0.00036921	
O		7.01913548		0.08739039		2.22531629		-0.00013606		 0.00003981		-0.00036921	
O		9.11677680		4.28210960		2.71983145		 0.00000030		 0.00001640		 0.00033816	
O		2.17863644		4.45689038		2.22531629		-0.00000030		-0.00001640		-0.00033816	
O		7.82634210		8.65160959		4.69788919		-0.00000030		 0.00001640		-0.00033816	
O		3.46907115		0.08739039		0.24725661		 0.00000030		-0.00001640		 0.00033816	
O		1.88649291		2.18475000		1.68629467		-0.00043934		 0.00035013		 0.00010043	
O		9.40892034		6.55424999		3.25885211		 0.00043934		-0.00035013		-0.00010043	
O		3.76121275		6.55424999		0.78627824		 0.00043934		 0.00035013		-0.00010043	
O		7.53419856		2.18475000		4.15886757		-0.00043934		-0.00035013		 0.00010043	
O		6.45436530		3.67037980		1.97805871		 0.00080089		 0.00047340		-0.00010224	
O		4.84104795		5.06862115		2.96708806		-0.00080089		-0.00047340		 0.00010224	
O		8.87434133		8.03987979		0.49451516		-0.00080089		 0.00047340		 0.00010224	
O		2.42107095		0.69912019		4.45063161		 0.00080089		-0.00047340		-0.00010224	
Mg		0.40360283		0.79524865		1.23628694		-0.00006795		-0.00066174		-0.00000340	
Mg		1.21081042		7.94375133		3.70885984		 0.00006795		 0.00066174		 0.00000340	
Mg		5.24410283		5.16474864		1.23628694		 0.00006795		-0.00066174		 0.00000340	
Mg		6.05131042		3.57425134		3.70885984		-0.00006795		 0.00066174		-0.00000340	
Mg		0.32288265		6.02990960		0.98902935		 0.00032051		-0.00043294		-0.00008937	
Mg		1.29152963		2.70909038		3.95611742		-0.00032051		 0.00043294		 0.00008937	
Mg		5.32482398		1.66040961		1.48354355		-0.00032051		-0.00043294		 0.00008937	
Mg		5.97058927		7.07859037		3.46160322		 0.00032051		 0.00043294		-0.00008937	
