# total energy = -49446.1228972 eV

CRYSTAL
PRIMVEC
		14.02399962		0.00000000		0.00000000
		0.00000000		5.49217690		0.00000000
		0.00000000		0.00000000		8.73299700
PRIMECORD
   70 1
Mg		2.42755433		1.80088350		0.04628481		-0.00076777		-0.00038719		 0.00055208
Mg		11.59644529		3.69129060		0.04628481		 0.00076777		 0.00038719		 0.00055208
Mg		9.43955414		0.94520355		4.41278471		-0.00076777		 0.00038719		 0.00055208
Mg		4.58444548		4.54697195		4.41278471		 0.00076777		-0.00038719		 0.00055208
Mg		2.48925993		4.59035940		1.53002257		 0.00070768		-0.00065940		 0.00008195
Mg		11.53473969		0.90181470		1.53002257		-0.00070768		 0.00065940		 0.00008195
Mg		9.50125974		3.64790315		5.89652106		 0.00070768		 0.00065940		 0.00008195
Mg		4.52273988		1.84427235		5.89652106		-0.00070768		-0.00065940		 0.00008195
Mg		4.54377588		1.90084236		2.83123937		-0.00068822		-0.00044843		-0.00007336
Mg		9.48022374		3.59133454		2.83123937		 0.00068822		 0.00044843		-0.00007336
Mg		11.55577569		0.84524609		7.19773927		-0.00068822		 0.00044843		-0.00007336
Mg		2.46822393		4.64692941		7.19773927		 0.00068822		-0.00044843		-0.00007336
Mg		0.00000000		2.74608845		7.23616363		0.00000000		0.00000000		 0.00022409
Mg		7.01199981		0.00000000		2.86966373		0.00000000		0.00000000		 0.00022409
Mg		0.00000000		2.74608845		1.63307091		0.00000000		0.00000000		 0.00066225
Mg		7.01199981		0.00000000		5.99957082		0.00000000		0.00000000		 0.00066225
Mg		0.00000000		0.00000000		5.78561226		0.00000000		0.00000000		-0.00041023
Mg		7.01199981		2.74608845		1.41911236		0.00000000		0.00000000		-0.00041023
Mg		0.00000000		0.00000000		3.01725090		0.00000000		0.00000000		 0.00029265
Mg		7.01199981		2.74608845		7.38375080		0.00000000		0.00000000		 0.00029265
Si		0.00000000		0.00000000		0.06724368		0.00000000		0.00000000		-0.00029854
Si		7.01199981		2.74608845		4.43374358		0.00000000		0.00000000		-0.00029854
Si		5.28143826		0.07744053		0.04453742		-0.00042046		-0.00030512		 0.00018581
Si		8.74256136		5.41473497		0.04453742		 0.00042046		 0.00030512		 0.00018581
Si		12.29343807		2.66864792		4.41103732		-0.00042046		 0.00030512		 0.00018581
Si		1.73056155		2.82352757		4.41103732		 0.00042046		-0.00030512		 0.00018581
O		5.82416704		3.89285334		8.67710855		-0.00027146		-0.00023291		-0.00006792
O		8.19983258		1.59932076		8.67710855		 0.00027146		 0.00023291		-0.00006792
O		12.83616825		4.34540921		4.31060865		-0.00027146		 0.00023291		-0.00006792
O		1.18783277		1.14676629		4.31060865		 0.00027146		-0.00023291		-0.00006792
O		1.09807917		3.80662678		0.04366513		-0.00005903		 0.00011288		 0.00031706
O		12.92592045		1.68554872		0.04366513		 0.00005903		-0.00011288		 0.00031706
O		8.11007898		4.43163577		4.41016503		-0.00005903		-0.00011288		 0.00031706
O		5.91392064		1.06053833		4.41016503		 0.00005903		 0.00011288		 0.00031706
O		3.49898791		0.12082798		3.01375752		-0.00070167		 0.00000285		-0.00013858
O		10.52501171		5.37134752		3.01375752		 0.00070167		-0.00000285		-0.00013858
O		10.51098912		2.62526047		7.38025742		-0.00070167		-0.00000285		-0.00013858
O		3.51301190		2.86691643		7.38025742		 0.00070167		 0.00000285		-0.00013858
O		3.57892470		2.81199424		1.41474529		 0.00069928		 0.00002243		-0.00018878
O		10.44507492		2.68018126		1.41474529		-0.00069928		-0.00002243		-0.00018878
O		10.59092451		5.42626831		5.78124519		 0.00069928		-0.00002243		-0.00018878
O		3.43307511		0.06590579		5.78124519		-0.00069928		 0.00002243		-0.00018878
O		1.06582397		0.79087364		1.33702148		 0.00036691		 0.00032993		-0.00064425
O		12.95817705		4.70130186		1.33702148		-0.00036691		-0.00032993		-0.00064425
O		8.07782378		1.95521341		5.70352138		 0.00036691		-0.00032993		-0.00064425
O		5.94617584		3.53696069		5.70352138		-0.00036691		 0.00032993		-0.00064425
O		6.02751504		3.55343749		3.16047240		 0.00068649		-0.00025177		-0.00025168
O		7.99648318		1.93873801		3.16047240		-0.00068649		 0.00025177		-0.00025168
O		13.03951625		4.68482506		7.52697230		 0.00068649		 0.00025177		-0.00025168
O		0.98448477		0.80735044		7.52697230		-0.00068649		-0.00025177		-0.00025168
O		5.81294784		0.84030263		1.39640751		-0.00080875		-0.00028220		-0.00011319
O		8.21105178		4.65187146		1.39640751		 0.00080875		 0.00028220		-0.00011319
O		12.82494765		1.90578442		5.76290741		-0.00080875		 0.00028220		-0.00011319
O		1.19905197		3.58638968		5.76290741		 0.00080875		-0.00028220		-0.00011319
O		1.24673357		3.76213984		3.03821117		 0.00055345		-0.00032592		 0.00013543
O		12.77726605		1.73003565		3.03821117		-0.00055345		 0.00032592		 0.00013543
O		8.25873338		4.47612270		7.40471107		 0.00055345		 0.00032592		 0.00013543
O		5.76526624		1.01605139		7.40471107		-0.00055345		-0.00032592		 0.00013543
O		3.64343510		0.02636231		0.06113061		 0.00014927		 0.00046903		 0.00030705
O		10.38056592		5.46581318		0.06113061		-0.00014927		-0.00046903		 0.00030705
O		10.65543491		2.71972473		4.42763051		 0.00014927		-0.00046903		 0.00030705
O		3.36856471		2.77244936		4.42763051		-0.00014927		 0.00046903		 0.00030705
H		4.20719989		3.29530474		0.87329970		 0.00036711		 0.00021766		-0.00012876
H		9.81679973		2.19686936		0.87329970		-0.00036711		-0.00021766		-0.00012876
H		11.21919970		4.94295781		5.23979960		 0.00036711		-0.00021766		-0.00012876
H		2.80479992		0.54921769		5.23979960		-0.00036711		 0.00021766		-0.00012876
H		3.78647990		0.98859240		3.92985005		 0.00070591		-0.00061750		-0.00020797
H		10.23751972		4.50358450		3.92985005		-0.00070591		 0.00061750		-0.00020797
H		10.79847971		1.75749605		8.29634995		 0.00070591		 0.00061750		-0.00020797
H		3.22551991		3.73467945		8.29634995		-0.00070591		-0.00061750		-0.00020797
