# total energy = -49446.338281 eV

CRYSTAL
PRIMVEC
		14.02399962		0.00000000		0.00000000
		0.00000000		4.85355200		0.00000000
		0.00000000		0.00000000		8.73299700
PRIMECORD
   70 1
Mg		2.42755433		1.59147854		0.04628481		 0.00012786		-0.00021834		-0.00008768
Mg		11.59644529		3.26207066		0.04628481		-0.00012786		 0.00021834		-0.00008768
Mg		9.43955414		0.83529606		4.41278471		 0.00012786		 0.00021834		-0.00008768
Mg		4.58444548		4.01825454		4.41278471		-0.00012786		-0.00021834		-0.00008768
Mg		2.48925993		4.05659756		1.53002257		-0.00056137		-0.00025901		-0.00006822
Mg		11.53473969		0.79695305		1.53002257		 0.00056137		 0.00025901		-0.00006822
Mg		9.50125974		3.22372765		5.89652106		-0.00056137		 0.00025901		-0.00006822
Mg		4.52273988		1.62982155		5.89652106		 0.00056137		-0.00025901		-0.00006822
Mg		4.54377588		1.67981431		2.83123937		 0.00040667		 0.00009795		-0.00040537
Mg		9.48022374		3.17373629		2.83123937		-0.00040667		-0.00009795		-0.00040537
Mg		11.55577569		0.74696029		7.19773927		 0.00040667		-0.00009795		-0.00040537
Mg		2.46822393		4.10658891		7.19773927		-0.00040667		 0.00009795		-0.00040537
Mg		0.00000000		2.42677460		7.23616363		0.00000000		0.00000000		-0.00017265
Mg		7.01199981		0.00000000		2.86966373		0.00000000		0.00000000		-0.00017265
Mg		0.00000000		2.42677460		1.63307091		0.00000000		0.00000000		 0.00083777
Mg		7.01199981		0.00000000		5.99957082		0.00000000		0.00000000		 0.00083777
Mg		0.00000000		0.00000000		5.78561226		0.00000000		0.00000000		-0.00076481
Mg		7.01199981		2.42677460		1.41911236		0.00000000		0.00000000		-0.00076481
Mg		0.00000000		0.00000000		3.01725090		0.00000000		0.00000000		-0.00049007
Mg		7.01199981		2.42677460		7.38375080		0.00000000		0.00000000		-0.00049007
Si		0.00000000		0.00000000		0.06724368		0.00000000		0.00000000		-0.00008988
Si		7.01199981		2.42677460		4.43374358		0.00000000		0.00000000		-0.00008988
Si		5.28143826		0.06843431		0.04453742		-0.00016789		-0.00007794		-0.00026386
Si		8.74256136		4.78511489		0.04453742		 0.00016789		 0.00007794		-0.00026386
Si		12.29343807		2.35834029		4.41103732		-0.00016789		 0.00007794		-0.00026386
Si		1.73056155		2.49521032		4.41103732		 0.00016789		-0.00007794		-0.00026386
O		5.82416704		3.44019649		8.67710855		-0.00000319		 0.00012650		-0.00045798
O		8.19983258		1.41335411		8.67710855		 0.00000319		-0.00012650		-0.00045798
O		12.83616825		3.84012871		4.31060865		-0.00000319		-0.00012650		-0.00045798
O		1.18783277		1.01342049		4.31060865		 0.00000319		 0.00012650		-0.00045798
O		1.09807917		3.36399569		0.04366513		-0.00022595		 0.00039819		-0.00025310
O		12.92592045		1.48955491		0.04366513		 0.00022595		-0.00039819		-0.00025310
O		8.11007898		3.91632951		4.41016503		-0.00022595		-0.00039819		-0.00025310
O		5.91392064		0.93721969		4.41016503		 0.00022595		 0.00039819		-0.00025310
O		3.49898791		0.10677733		3.01375752		 0.00078036		-0.00047912		 0.00069349
O		10.52501171		4.74677187		3.01375752		-0.00078036		 0.00047912		 0.00069349
O		10.51098912		2.31999727		7.38025742		 0.00078036		 0.00047912		 0.00069349
O		3.51301190		2.53355333		7.38025742		-0.00078036		-0.00047912		 0.00069349
O		3.57892470		2.48501767		1.41474529		-0.00028651		-0.00054501		 0.00059503
O		10.44507492		2.36853153		1.41474529		 0.00028651		 0.00054501		 0.00059503
O		10.59092451		4.79530753		5.78124519		-0.00028651		 0.00054501		 0.00059503
O		3.43307511		0.05824307		5.78124519		 0.00028651		-0.00054501		 0.00059503
O		1.06582397		0.69891126		1.33702148		-0.00021550		 0.00030110		-0.00026415
O		12.95817705		4.15463934		1.33702148		 0.00021550		-0.00030110		-0.00026415
O		8.07782378		1.72786334		5.70352138		-0.00021550		-0.00030110		-0.00026415
O		5.94617584		3.12568586		5.70352138		 0.00021550		 0.00030110		-0.00026415
O		6.02751504		3.14024698		3.16047240		-0.00067585		 0.00044940		 0.00053144
O		7.99648318		1.71330362		3.16047240		 0.00067585		-0.00044940		 0.00053144
O		13.03951625		4.14007822		7.52697230		-0.00067585		-0.00044940		 0.00053144
O		0.98448477		0.71347238		7.52697230		 0.00067585		 0.00044940		 0.00053144
O		5.81294784		0.74259322		1.39640751		 0.00003544		-0.00034467		-0.00014083
O		8.21105178		4.11095738		1.39640751		-0.00003544		 0.00034467		-0.00014083
O		12.82494765		1.68418138		5.76290741		 0.00003544		 0.00034467		-0.00014083
O		1.19905197		3.16936782		5.76290741		-0.00003544		-0.00034467		-0.00014083
O		1.24673357		3.32468221		3.03821117		-0.00017869		 0.00009225		 0.00011753
O		12.77726605		1.52886839		3.03821117		 0.00017869		-0.00009225		 0.00011753
O		8.25873338		3.95564299		7.40471107		-0.00017869		-0.00009225		 0.00011753
O		5.76526624		0.89790761		7.40471107		 0.00017869		 0.00009225		 0.00011753
O		3.64343510		0.02329667		0.06113061		-0.00000293		-0.00004516		-0.00020623
O		10.38056592		4.83025253		0.06113061		 0.00000293		 0.00004516		-0.00020623
O		10.65543491		2.40347793		4.42763051		-0.00000293		 0.00004516		-0.00020623
O		3.36856471		2.45007127		4.42763051		 0.00000293		-0.00004516		-0.00020623
H		4.20719989		2.91212980		0.87329970		 0.00021532		-0.00048033		 0.00051303
H		9.81679973		1.94141940		0.87329970		-0.00021532		 0.00048033		 0.00051303
H		11.21919970		4.36819540		5.23979960		 0.00021532		 0.00048033		 0.00051303
H		2.80479992		0.48535520		5.23979960		-0.00021532		-0.00048033		 0.00051303
H		3.78647990		0.87363908		3.92985005		 0.00004590		-0.00061957		 0.00003669
H		10.23751972		3.97991152		3.92985005		-0.00004590		 0.00061957		 0.00003669
H		10.79847971		1.55313552		8.29634995		 0.00004590		 0.00061957		 0.00003669
H		3.22551991		3.30041368		8.29634995		-0.00004590		-0.00061957		 0.00003669
