# total energy = -92493.8088171 eV	

CRYSTAL	
PRIMVEC	
		18.50000256		-2.21999584		0.00000000	
		-2.14799899		17.89999160		0.00000000	
		0.00000000		0.00000000		5.27000497	
PRIMCOORD
   164 1	
Mg		2.03983976		2.75439725		2.00260040		-0.00000156		-0.00170344		-0.00237817	
Mg		14.31216008		12.92559106		3.26740085		 0.00000156		 0.00170344		 0.00237817	
Mg		5.06216067		14.03559084		4.63759916		 0.00000156		 0.00170344		-0.00237817	
Mg		11.28983918		1.64439747		0.63240022		-0.00000156		-0.00170344		 0.00237817	
Mg		14.65584067		10.06159427		3.26740085		 0.00024081		-0.00048246		-0.00008523	
Mg		1.69615917		5.61839591		2.00260040		-0.00024081		 0.00048246		 0.00008523	
Mg		10.94616045		4.50839612		0.63240022		-0.00024081		 0.00048246		-0.00008523	
Mg		5.40584125		11.17159405		4.63759916		 0.00024081		-0.00048246		 0.00008523	
Mg		2.23315985		1.14339894		4.58490022		-0.00007859		-0.00063643		-0.00125272	
Mg		14.11883999		14.53659124		0.68509916		 0.00007859		 0.00063643		 0.00125272	
Mg		4.86884057		15.64659102		1.94989960		 0.00007859		 0.00063643		-0.00125272	
Mg		11.48315927		0.03339916		3.32009978		-0.00007859		-0.00063643		 0.00125272	
Mg		14.84916076		8.45059409		0.68509916		-0.00199974		 0.00123490		 0.00122636	
Mg		1.50283908		7.22939608		4.58490022		 0.00199974		-0.00123490		-0.00122636	
Mg		10.75284036		6.11939630		3.32009978		 0.00199974		-0.00123490		 0.00122636	
Mg		5.59916135		9.56059387		1.94989960		-0.00199974		 0.00123490		-0.00122636	
Mg		0.29996076		17.25339138		2.00260040		 0.00186846		 0.00194895		 0.00068362	
Mg		16.05203908		-1.57339934		3.26740085		-0.00186846		-0.00194895		-0.00068362	
Mg		6.80203966		-0.46339956		4.63759916		-0.00186846		-0.00194895		 0.00068362	
Mg		9.54996018		16.14338973		0.63240022		 0.00186846		 0.00194895		-0.00068362	
Mg		15.06396066		6.66059493		3.26740085		-0.00176443		 0.00052920		 0.00052268	
Mg		1.28804104		9.01939524		2.00260040		 0.00176443		-0.00052920		-0.00052268	
Mg		10.53804046		7.90939546		0.63240022		 0.00176443		-0.00052920		 0.00052268	
Mg		5.81396124		7.77059471		4.63759916		-0.00176443		 0.00052920		-0.00052268	
Mg		1.86799947		4.18639844		4.58490022		 0.00006193		-0.00008597		-0.00321836	
Mg		14.48400037		11.49359360		0.68509916		-0.00006193		 0.00008597		 0.00321836	
Mg		5.23400096		12.60359338		1.94989960		-0.00006193		 0.00008597		-0.00321836	
Mg		11.11799888		3.07639866		3.32009978		 0.00006193		-0.00008597		 0.00321836	
Si		-1.20635891		14.61139230		1.52830070		-0.00005938		-0.00012669		-0.00205063	
Si		17.55836061		1.06859787		3.74170055		 0.00005938		 0.00012669		 0.00205063	
Si		8.30835934		2.17859765		4.16329945		 0.00005938		 0.00012669		-0.00205063	
Si		8.04364051		13.50139252		1.10669993		-0.00005938		-0.00012669		 0.00205063	
Si		17.25764150		3.57459669		3.74170055		-0.00203962		-0.00183114		 0.00207635	
Si		-0.90563980		12.10539348		1.52830070		 0.00203962		 0.00183114		-0.00207635	
Si		8.34435962		10.99539184		1.10669993		 0.00203962		 0.00183114		 0.00207635	
Si		8.00764022		4.68459647		4.16329945		-0.00203962		-0.00183114		-0.00207635	
Si		-1.42115881		16.40139146		4.16329945		 0.00078906		 0.00093297		-0.00041918	
Si		17.77316051		-0.72140129		1.10669993		-0.00078906		-0.00093297		 0.00041918	
Si		8.52315923		0.38859849		1.52830070		-0.00078906		-0.00093297		-0.00041918	
Si		7.82884061		15.29138982		3.74170055		 0.00078906		 0.00093297		 0.00041918	
Si		17.04283974		5.36459585		1.10669993		-0.00153376		-0.00093965		 0.00076096	
Si		-0.69083990		10.31539432		4.16329945		 0.00153376		 0.00093965		-0.00076096	
Si		8.55915952		9.20539454		3.74170055		 0.00153376		 0.00093965		 0.00076096	
Si		7.79284032		6.47459563		1.52830070		-0.00153376		-0.00093965		-0.00076096	
Si		2.09384112		15.97959132		0.21079945		 0.00109354		-0.00069787		-0.00108387	
Si		14.25815872		-0.29960115		5.05919993		-0.00109354		 0.00069787		 0.00108387	
Si		5.00815931		0.81039863		2.84580007		-0.00109354		 0.00069787		-0.00108387	
Si		11.34384240		14.86959154		2.42419930		 0.00109354		-0.00069787		 0.00108387	
Si		13.52783981		5.78639599		5.05919993		 0.00099463		 0.00013747		-0.00156456	
Si		2.82416003		9.89359418		0.21079945		-0.00099463		-0.00013747		 0.00156456	
Si		12.07416131		8.78359440		2.42419930		-0.00099463		-0.00013747		-0.00156456	
Si		4.27784039		6.89639577		2.84580007		 0.00099463		 0.00013747		 0.00156456	
Si		2.30864102		14.18959216		2.84580007		-0.00082580		-0.00138525		-0.00217078	
Si		14.04335882		1.49039801		2.42419930		 0.00082580		 0.00138525		 0.00217078	
Si		4.79335941		2.60039779		0.21079945		 0.00082580		 0.00138525		-0.00217078	
Si		11.55864230		13.07959238		5.05919993		-0.00082580		-0.00138525		 0.00217078	
Si		13.74263971		3.99639683		2.42419930		 0.00056697		-0.00081509		-0.00079189	
Si		2.60936013		11.68359334		2.84580007		-0.00056697		 0.00081509		 0.00079189	
Si		11.85936141		10.57359356		5.05919993		-0.00056697		 0.00081509		-0.00079189	
Si		4.49264029		5.10639661		0.21079945		 0.00056697		-0.00081509		 0.00079189	
O		0.95963929		1.11979873		1.05399913		 0.00015520		 0.00080606		 0.00076828	
O		15.39236055		14.56019144		4.21600025		-0.00015520		-0.00080606		-0.00076828	
O		6.14236113		15.67019122		3.68899975		-0.00015520		-0.00080606		 0.00076828	
O		10.20964057		0.00979895		1.58099963		 0.00015520		 0.00080606		-0.00076828	
O		16.16564093		8.11619447		4.21600025		-0.00027055		 0.00050514		-0.00143808	
O		0.18636077		7.56379571		1.05399913		 0.00027055		-0.00050514		 0.00143808	
O		9.43636019		6.45379593		1.58099963		 0.00027055		-0.00050514		-0.00143808	
O		6.91564151		9.22619425		3.68899975		-0.00027055		 0.00050514		 0.00143808	
O		0.72335959		3.08879874		3.68899975		-0.00006965		 0.00061611		-0.00200484	
O		15.62864025		12.59119144		1.58099963		 0.00006965		-0.00061611		 0.00200484	
O		6.37864084		13.70119122		1.05399913		 0.00006965		-0.00061611		-0.00200484	
O		9.97335901		1.97879709		4.21600025		-0.00006965		 0.00061611		 0.00200484	
O		15.92936123		10.08519261		1.58099963		 0.00110268		-0.00116820		-0.00247613	
O		0.42264048		5.59479756		3.68899975		-0.00110268		 0.00116820		 0.00247613	
O		9.67263989		4.48479778		4.21600025		-0.00110268		 0.00116820		-0.00247613	
O		6.67935995		11.19519239		1.05399913		 0.00110268		-0.00116820		 0.00247613	
O		-0.50099853		13.29179302		1.05399913		 0.00274465		-0.00295160		-0.00067861	
O		16.85300024		2.38819716		4.21600025		-0.00274465		 0.00295160		 0.00067861	
O		7.60299896		3.49819880		3.68899975		-0.00274465		 0.00295160		-0.00067861	
O		8.74900089		12.18179324		1.58099963		 0.00274465		-0.00295160		 0.00067861	
O		0.57299910		4.34179722		1.05399913		 0.00106188		-0.00104279		 0.00071679	
O		15.77900074		11.33819296		4.21600025		-0.00106188		 0.00104279		-0.00071679	
O		6.52900132		12.44819274		3.68899975		-0.00106188		 0.00104279		 0.00071679	
O		9.82300038		3.23179744		1.58099963		 0.00106188		-0.00104279		-0.00071679	
O		1.10999978		-0.13319975		3.68899975		 0.00224341		 0.00008731		-0.00050341	
O		17.38999905		-2.08679981		1.58099963		-0.00224341		-0.00008731		 0.00050341	
O		8.13999964		-0.97680003		1.05399913		-0.00224341		-0.00008731		-0.00050341	
O		10.35999920		-1.24319953		4.21600025		 0.00224341		 0.00008731		 0.00050341	
O		16.31600142		6.86319412		1.58099963		 0.00221522		 0.00353013		-0.00023422	
O		0.03600028		8.81679419		3.68899975		-0.00221522		-0.00353013		 0.00023422	
O		9.28600156		7.70679441		4.21600025		-0.00221522		-0.00353013		-0.00023422	
O		7.06600014		7.97319391		1.05399913		 0.00221522		 0.00353013		 0.00023422	
O		-0.94375862		15.46199104		0.26350025		 0.00140762		 0.00135894		 0.00051932	
O		17.29576033		0.21799914		5.00649913		-0.00140762		-0.00135894		-0.00051932	
O		8.04575905		1.32799892		2.89849901		-0.00140762		-0.00135894		 0.00051932	
O		8.30624079		14.35199126		2.37150037		 0.00140762		 0.00135894		-0.00051932	
O		16.78023945		4.51399526		5.00649913		 0.00202406		 0.00116720		 0.00012017	
O		-0.42823961		11.16599305		0.26350025		-0.00202406		-0.00116720		-0.00012017	
O		8.82176167		10.05599327		2.37150037		-0.00202406		-0.00116720		 0.00012017	
O		7.53024003		5.62399504		2.89849901		 0.00202406		 0.00116720		-0.00012017	
O		-0.94375862		15.46199104		2.84580007		-0.00052469		 0.00140776		-0.00041737	
O		17.29576033		0.21799914		2.42419930		 0.00052469		-0.00140776		 0.00041737	
O		8.04575905		1.32799892		0.21079945		 0.00052469		-0.00140776		-0.00041737	
O		8.30624079		14.35199126		5.05919993		-0.00052469		 0.00140776		 0.00041737	
O		16.78023945		4.51399526		2.42419930		 0.00391187		 0.00106578		 0.00124623	
O		-0.42823961		11.16599305		2.84580007		-0.00391187		-0.00106578		-0.00124623	
O		8.82176167		10.05599327		5.05919993		-0.00391187		-0.00106578		 0.00124623	
O		7.53024003		5.62399504		0.21079945		 0.00391187		 0.00106578		-0.00124623	
O		3.12835974		2.80019835		0.26350025		 0.00018297		 0.00014453		 0.00061751	
O		13.22364011		12.87979183		5.00649913		-0.00018297		-0.00014453		-0.00061751	
O		3.97364069		13.98979161		2.89849901		-0.00018297		-0.00014453		 0.00061751	
O		12.37835915		1.69019857		2.37150037		 0.00018297		 0.00014453		-0.00061751	
O		13.52436108		10.37379300		5.00649913		-0.00111508		 0.00094001		 0.00235428	
O		2.82764062		5.30619717		0.26350025		 0.00111508		-0.00094001		-0.00235428	
O		12.07764004		4.19619739		2.37150037		 0.00111508		-0.00094001		 0.00235428	
O		4.27436167		11.48379278		2.89849901		-0.00111508		 0.00094001		-0.00235428	
O		3.36463944		0.83119834		2.95119980		-0.00058318		-0.00155167		 0.00095623	
O		12.98736040		14.84878997		2.31879958		 0.00058318		 0.00155167		-0.00095623	
O		3.73736099		15.95878975		0.31619918		 0.00058318		 0.00155167		 0.00095623	
O		12.61463886		-0.27880144		4.95380020		-0.00058318		-0.00155167		-0.00095623	
O		13.76064078		8.40479300		2.31879958		-0.00163023		 0.00065162		-0.00190509	
O		2.59135906		7.27519532		2.95119980		 0.00163023		-0.00065162		 0.00190509	
O		11.84136034		6.16519553		4.95380020		 0.00163023		-0.00065162		-0.00190509	
O		4.51064137		9.51479464		0.31619918		-0.00163023		 0.00065162		 0.00190509	
O		3.51499993		-0.42180014		0.26350025		 0.00046319		-0.00004642		 0.00042786	
O		14.98499891		-1.79819942		5.00649913		-0.00046319		 0.00004642		-0.00042786	
O		5.73499949		-0.68819964		2.89849901		-0.00046319		 0.00004642		 0.00042786	
O		12.76499934		-1.53179992		2.37150037		 0.00046319		-0.00004642		-0.00042786	
O		13.91100127		7.15179451		5.00649913		 0.00132107		-0.00145746		-0.00173483	
O		2.44100043		8.52819566		0.26350025		-0.00132107		 0.00145746		 0.00173483	
O		11.69099985		7.41819402		2.37150037		-0.00132107		 0.00145746		-0.00173483	
O		4.66099999		8.26179430		2.89849901		 0.00132107		-0.00145746		 0.00173483	
O		1.90400162		13.00319263		2.37150037		-0.00009325		 0.00057782		 0.00130224	
O		14.44800009		2.67679755		2.89849901		 0.00009325		-0.00057782		-0.00130224	
O		5.19800067		3.78679733		5.00649913		 0.00009325		-0.00057782		 0.00130224	
O		11.15400103		11.89319285		0.26350025		-0.00009325		 0.00057782		-0.00130224	
O		2.97799925		4.05319869		2.89849901		 0.00007531		 0.00263424		-0.00015870	
O		13.37400059		11.62679335		2.37150037		-0.00007531		-0.00263424		 0.00015870	
O		4.12400118		12.73679313		0.26350025		-0.00007531		-0.00263424		-0.00015870	
O		12.22800053		2.94319705		5.00649913		 0.00007531		 0.00263424		 0.00015870	
O		1.83124083		15.12899073		1.58099963		 0.00101657		 0.00011946		-0.00100631	
O		14.52075901		0.55099944		3.68899975		-0.00101657		-0.00011946		 0.00100631	
O		5.27075959		1.66099923		4.21600025		-0.00101657		-0.00011946		-0.00100631	
O		11.08124025		14.01899095		1.05399913		 0.00101657		 0.00011946		 0.00100631	
O		14.00524000		4.84699557		3.68899975		-0.00311823		 0.00017779		-0.00136663	
O		2.34676171		10.83299461		1.58099963		 0.00311823		-0.00017779		 0.00136663	
O		11.59676112		9.72299296		1.05399913		 0.00311823		-0.00017779		-0.00136663	
O		4.75524058		5.95699535		4.21600025		-0.00311823		 0.00017779		 0.00136663	
O		1.83124083		15.12899073		4.21600025		-0.00100487		 0.00031979		-0.00053170	
O		14.52075901		0.55099944		1.05399913		 0.00100487		-0.00031979		 0.00053170	
O		5.27075959		1.66099923		1.58099963		 0.00100487		-0.00031979		-0.00053170	
O		11.08124025		14.01899095		3.68899975		-0.00100487		 0.00031979		 0.00053170	
O		14.00524000		4.84699557		1.05399913		-0.00160328		-0.00172555		-0.00150799	
O		2.34676171		10.83299461		4.21600025		 0.00160328		 0.00172555		 0.00150799	
O		11.59676112		9.72299296		3.68899975		 0.00160328		 0.00172555		-0.00150799	
O		4.75524058		5.95699535		1.58099963		-0.00160328		-0.00172555		 0.00150799	
H		17.94500081		-2.15340062		0.79050075		-0.00080207		 0.00028250		 0.00066295	
H		0.55499989		-0.06660081		4.47950050		 0.00080207		-0.00028250		-0.00066295	
H		9.80499931		-1.17660059		3.42549950		 0.00080207		-0.00028250		 0.00066295	
H		8.69500139		-1.04340084		1.84449988		-0.00080207		 0.00028250		-0.00066295	
H		-0.51899961		8.88339499		4.47950050		 0.00008534		 0.00352348		-0.00249880	
H		16.87100131		6.79659518		0.79050075		-0.00008534		-0.00352348		 0.00249880	
H		7.62100003		7.90659496		1.84449988		-0.00008534		-0.00352348		-0.00249880	
H		8.73099981		7.77339521		3.42549950		 0.00008534		 0.00352348		 0.00249880	
