# total energy = -34531.8451778 eV	

CRYSTAL	
PRIMVEC	
		9.34399986		0.00000000		0.00000000	
		0.00000000		5.17529579		0.00000000	
		-0.48050585		0.00000000		13.28130911	
PRIMCOORD
   56 1	
Si		1.25702494		2.47793439		4.82257662		-0.00014182		 0.00022288		 0.00014983	
Si		7.60647094		2.69736608		8.45873342		 0.00014182		-0.00022288		-0.00014983	
Si		7.84672293		2.47793439		1.81807887		 0.00009596		 0.00046581		 0.00056388	
Si		1.01677295		2.69736608		11.46323210		-0.00009596		-0.00046581		-0.00056388	
Si		5.92902487		5.06558415		4.82257662		-0.00013882		 0.00022460		 0.00014743	
Si		2.93447101		0.10971631		8.45873342		 0.00013882		-0.00022460		-0.00014743	
Si		3.17472300		5.06558415		1.81807887		 0.00009664		 0.00046487		 0.00056159	
Si		5.68877288		0.10971631		11.46323210		-0.00009664		-0.00046487		-0.00056159	
Mg		4.43174794		2.58764976		6.64065455		0.00000000		0.00000000		0.00000000	
Mg		4.67199993		2.58764976		0.00000000		0.00000000		0.00000000		0.00000000	
Mg		-0.24025199		0.00000000		6.64065455		0.00000000		0.00000000		0.00000000	
Mg		0.00000000		0.00000000		0.00000000		0.00000000		0.00000000		0.00000000	
O		0.46208042		1.10596236		4.97119480		 0.00068334		 0.00069218		-0.00004905	
O		8.40141453		4.06933810		8.31011617		-0.00068334		-0.00069218		 0.00004905	
O		8.64166745		1.10596236		1.66946068		-0.00063469		 0.00056902		-0.00004477	
O		0.22182843		4.06933810		11.61184936		 0.00063469		-0.00056902		 0.00004477	
O		5.13408034		3.69361213		4.97119480		 0.00068227		 0.00069061		-0.00004881	
O		3.72941553		1.48168834		8.31011617		-0.00068227		-0.00069061		 0.00004881	
O		3.96966752		3.69361213		1.66946068		-0.00063508		 0.00056948		-0.00004434	
O		4.89382835		1.48168834		11.61184936		 0.00063508		-0.00056948		 0.00004434	
O		2.66276525		2.37649779		5.63791629		 0.00015521		-0.00038279		 0.00050200	
O		6.20072970		2.79880174		7.64339375		-0.00015521		 0.00038279		-0.00050200	
O		6.44098262		2.37649779		1.00273920		-0.00028722		-0.00039312		-0.00062615	
O		2.42251326		2.79880174		12.27857178		 0.00028722		 0.00039312		 0.00062615	
O		7.33476517		4.96414756		5.63791629		 0.00015380		-0.00038284		 0.00050161	
O		1.52873070		0.21115197		7.64339375		-0.00015380		 0.00038284		-0.00050161	
O		1.76898269		4.96414756		1.00273920		-0.00028703		-0.00039303		-0.00062583	
O		7.09451318		0.21115197		12.27857178		 0.00028703		 0.00039303		 0.00062583	
O		0.40556510		3.56785217		5.65518213		 0.00006538		-0.00017702		-0.00001693	
O		8.45793078		1.60744830		7.62612884		-0.00006538		 0.00017702		 0.00001693	
O		8.69818277		3.56785217		0.98547335		 0.00000915		-0.00010454		-0.00009426	
O		0.16531218		1.60744830		12.29583669		-0.00000915		 0.00010454		 0.00009426	
O		5.07756409		0.98020240		5.65518213		 0.00006464		-0.00017636		-0.00001616	
O		3.78593085		4.19509806		7.62612884		-0.00006464		 0.00017636		 0.00001616	
O		4.02618284		0.98020240		0.98547335		 0.00000880		-0.00010486		-0.00009400	
O		4.83731210		4.19509806		12.29583669		-0.00000880		 0.00010486		 0.00009400	
O		1.45510185		3.03427894		3.35087515		 0.00008218		-0.00023367		-0.00081240	
O		7.40839402		2.14102152		9.93043583		-0.00008218		 0.00023367		 0.00081240	
O		7.64864601		3.03427894		3.28978127		-0.00002698		-0.00038671		 0.00027125	
O		1.21484893		2.14102152		9.99152970		 0.00002698		 0.00038671		-0.00027125	
O		6.12710085		0.44662824		3.35087515		 0.00008159		-0.00023426		-0.00081042	
O		2.73639410		4.72867222		9.93043583		-0.00008159		 0.00023426		 0.00081042	
O		2.97664609		0.44662824		3.28978127		-0.00002728		-0.00038614		 0.00027295	
O		5.88684886		4.72867222		9.99152970		 0.00002728		 0.00038614		-0.00027295	
Ca		1.59139157		2.48414441		1.18761491		-0.00000495		-0.00012846		-0.00003696	
Ca		7.27210244		2.69115605		12.09369607		 0.00000495		 0.00012846		 0.00003696	
Ca		7.51235443		2.48414441		5.45304058		 0.00000534		-0.00012587		 0.00014409	
Ca		1.35113958		2.69115605		7.82826946		-0.00000534		 0.00012587		-0.00014409	
Ca		6.26339149		5.07179417		1.18761491		-0.00000516		-0.00012850		-0.00003701	
Ca		2.60010251		0.10350629		12.09369607		 0.00000516		 0.00012850		 0.00003701	
Ca		2.84035450		5.07179417		5.45304058		 0.00000493		-0.00012574		 0.00014412	
Ca		6.02313950		0.10350629		7.82826946		-0.00000493		 0.00012574		-0.00014412	
Ca		-0.12012646		4.80837093		3.32032774		-0.00000114		 0.00001191		 0.00006545	
Ca		-0.36037845		0.36692860		9.96098323		 0.00000114		-0.00001191		-0.00006545	
Ca		4.55187347		2.22072117		3.32032774		-0.00000081		 0.00001202		 0.00006524	
Ca		4.31162148		2.95457930		9.96098323		 0.00000081		-0.00001202		-0.00006524	
