# total energy = -34531.9862195 eV	

CRYSTAL	
PRIMVEC	
		9.34399986		0.00000000		0.00000000	
		0.00000000		5.44070276		0.00000000	
		-0.48050585		0.00000000		13.28130911	
PRIMCOORD
   56 1	
Si		1.25702494		2.60500718		4.82257662		-0.00010248		-0.00006190		 0.00044927	
Si		7.60647094		2.83569278		8.45873342		 0.00010248		 0.00006190		-0.00044927	
Si		7.84672293		2.60500718		1.81807887		 0.00010295		-0.00006348		-0.00045352	
Si		1.01677295		2.83569278		11.46323210		-0.00010295		 0.00006348		 0.00045352	
Si		5.92902487		5.32535669		4.82257662		-0.00010282		-0.00006209		 0.00044971	
Si		2.93447101		0.11534327		8.45873342		 0.00010282		 0.00006209		-0.00044971	
Si		3.17472300		5.32535669		1.81807887		 0.00010251		-0.00006315		-0.00045284	
Si		5.68877288		0.11534327		11.46323210		-0.00010251		 0.00006315		 0.00045284	
Mg		4.43174794		2.72034951		6.64065455		0.00000000		0.00000000		0.00000000	
Mg		4.67199993		2.72034951		0.00000000		0.00000000		0.00000000		0.00000000	
Mg		-0.24025199		0.00000000		6.64065455		0.00000000		0.00000000		0.00000000	
Mg		0.00000000		0.00000000		0.00000000		0.00000000		0.00000000		0.00000000	
O		0.46208042		1.16267764		4.97119480		-0.00017503		 0.00029414		-0.00007428	
O		8.40141453		4.27802326		8.31011617		 0.00017503		-0.00029414		 0.00007428	
O		8.64166745		1.16267764		1.66946068		 0.00017460		 0.00029468		 0.00007480	
O		0.22182843		4.27802326		11.61184936		-0.00017460		-0.00029468		-0.00007480	
O		5.13408034		3.88302809		4.97119480		-0.00017480		 0.00029426		-0.00007433	
O		3.72941553		1.55767187		8.31011617		 0.00017480		-0.00029426		 0.00007433	
O		3.96966752		3.88302809		1.66946068		 0.00017478		 0.00029447		 0.00007458	
O		4.89382835		1.55767187		11.61184936		-0.00017478		-0.00029447		-0.00007458	
O		2.66276525		2.49836878		5.63791629		 0.00012905		 0.00000022		 0.00028583	
O		6.20072970		2.94233025		7.64339375		-0.00012905		-0.00000022		-0.00028583	
O		6.44098262		2.49836878		1.00273920		-0.00012851		 0.00000040		-0.00028490	
O		2.42251326		2.94233025		12.27857178		 0.00012851		-0.00000040		 0.00028490	
O		7.33476517		5.21872016		5.63791629		 0.00012919		 0.00000022		 0.00028589	
O		1.52873070		0.22198073		7.64339375		-0.00012919		-0.00000022		-0.00028589	
O		1.76898269		5.21872016		1.00273920		-0.00012826		 0.00000036		-0.00028499	
O		7.09451318		0.22198073		12.27857178		 0.00012826		-0.00000036		 0.00028499	
O		0.40556510		3.75081890		5.65518213		 0.00012990		 0.00051589		-0.00013760	
O		8.45793078		1.68988106		7.62612884		-0.00012990		-0.00051589		 0.00013760	
O		8.69818277		3.75081890		0.98547335		-0.00013031		 0.00051540		 0.00013829	
O		0.16531218		1.68988106		12.29583669		 0.00013031		-0.00051540		-0.00013829	
O		5.07756409		1.03046939		5.65518213		 0.00013006		 0.00051571		-0.00013769	
O		3.78593085		4.41023058		7.62612884		-0.00013006		-0.00051571		 0.00013769	
O		4.02618284		1.03046939		0.98547335		-0.00013014		 0.00051545		 0.00013807	
O		4.83731210		4.41023058		12.29583669		 0.00013014		-0.00051545		-0.00013807	
O		1.45510185		3.18988270		3.35087515		-0.00012566		 0.00002486		 0.00032867	
O		7.40839402		2.25081819		9.93043583		 0.00012566		-0.00002486		-0.00032867	
O		7.64864601		3.18988270		3.28978127		 0.00012526		 0.00002591		-0.00032559	
O		1.21484893		2.25081819		9.99152970		-0.00012526		-0.00002591		 0.00032559	
O		6.12710085		0.46953319		3.35087515		-0.00012558		 0.00002484		 0.00032843	
O		2.73639410		4.97116771		9.93043583		 0.00012558		-0.00002484		-0.00032843	
O		2.97664609		0.46953319		3.28978127		 0.00012534		 0.00002559		-0.00032624	
O		5.88684886		4.97116771		9.99152970		-0.00012534		-0.00002559		 0.00032624	
Ca		1.59139157		2.61153583		1.18761491		 0.00051518		 0.00014584		-0.00036505	
Ca		7.27210244		2.82916413		12.09369607		-0.00051518		-0.00014584		 0.00036505	
Ca		7.51235443		2.61153583		5.45304058		-0.00051527		 0.00014574		 0.00036449	
Ca		1.35113958		2.82916413		7.82826946		 0.00051527		-0.00014574		-0.00036449	
Ca		6.26339149		5.33188628		1.18761491		 0.00051522		 0.00014584		-0.00036504	
Ca		2.60010251		0.10881368		12.09369607		-0.00051522		-0.00014584		 0.00036504	
Ca		2.84035450		5.33188628		5.45304058		-0.00051521		 0.00014575		 0.00036449	
Ca		6.02313950		0.10881368		7.82826946		 0.00051521		-0.00014575		-0.00036449	
Ca		-0.12012646		5.05495348		3.32032774		 0.00000004		-0.00058042		-0.00000027	
Ca		-0.36037845		0.38574554		9.96098323		-0.00000004		 0.00058042		 0.00000027	
Ca		4.55187347		2.33460397		3.32032774		-0.00000003		-0.00058044		-0.00000021	
Ca		4.31162148		3.10609599		9.96098323		 0.00000003		 0.00058044		 0.00000021	
