# total energy = -20628.5873569 eV	

CRYSTAL	
PRIMVEC	
		10.05000003		0.00000000		0.00000000	
		0.00000000		5.74999697		-0.91999710	
		0.00000000		-0.77919660		4.86999886	
PRIMCOORD
   28 1	
Si		3.34665001		-0.70026692		4.37666949		-0.00033776		-0.00001002		-0.00037734	
Si		6.70335002		-0.07893270		0.49333139		 0.00033776		 0.00001002		 0.00037734	
Si		8.37165002		2.17473257		3.91666893		-0.00036316		-0.00003573		-0.00036394	
Si		1.67835000		2.79606679		0.03333083		 0.00036316		 0.00003573		 0.00036394	
Mg		0.00000000		0.00000000		0.00000000		0.00000000		0.00000000		0.00000000	
Mg		5.02500001		2.87500049		-0.45999956		0.00000000		0.00000000		0.00000000	
Mg		5.02500001		-0.38960031		2.43500044		0.00000000		0.00000000		0.00000000	
Mg		0.00000000		2.48540018		1.97499988		0.00000000		0.00000000		0.00000000	
Mg		2.51250001		1.04790044		2.20500016		-0.00000624		-0.00002968		 0.00000802	
Mg		7.53750002		3.92289993		1.74499960		 0.00000624		 0.00002968		-0.00000802	
Mg		7.53750002		1.04790044		2.20500016		-0.00001059		 0.00003202		-0.00004639	
Mg		2.51250001		3.92289993		1.74499960		 0.00001059		-0.00003202		 0.00004639	
O		8.23497002		-0.17298161		1.08113981		-0.00010868		 0.00003568		 0.00041275	
O		1.81503001		-0.60621801		3.78886006		 0.00010868		-0.00003568		-0.00041275	
O		3.20997001		2.70201788		0.62114025		-0.00009519		 0.00000616		 0.00044111	
O		6.84003002		2.26878248		3.32886050		 0.00009519		-0.00000616		-0.00044111	
O		3.35770501		-0.18334617		1.14591105		 0.00050392		 0.00041723		 0.00024245	
O		6.69229502		-0.59585445		3.72408882		-0.00050392		-0.00041723		-0.00024245	
O		8.38270502		2.69165432		0.68591150		 0.00049941		 0.00044787		 0.00022595	
O		1.66729500		2.27914604		3.26408926		-0.00049941		-0.00044787		-0.00022595	
O		0.91254000		1.37867106		0.84853457		 0.00032657		-0.00028867		 0.00011219	
O		9.13746003		3.59212930		3.10146518		-0.00032657		 0.00028867		-0.00011219	
O		9.13746003		0.95057925		3.52411291		 0.00038325		-0.00010548		-0.00050605	
O		0.91254000		4.02022111		0.42588684		-0.00038325		 0.00010548		 0.00050605	
O		5.93754002		4.25367055		0.38853501		 0.00034587		-0.00029850		 0.00012597	
O		4.11246001		0.71712881		3.56146474		-0.00034587		 0.00029850		-0.00012597	
O		4.11246001		3.82557874		3.06411335		 0.00042635		-0.00008306		-0.00047921	
O		5.93754002		1.14522062		0.88588740		-0.00042635		 0.00008306		 0.00047921	
