# total energy = -20632.0951754 eV	

CRYSTAL	
PRIMVEC	
		10.05000003		0.00000000		0.00000000	
		0.00000000		5.74999697		0.69000285	
		0.00000000		0.58439745		4.86999886	
PRIMCOORD
   28 1	
Si		3.34665001		0.52519994		4.37666949		 0.00017839		-0.00034771		-0.00001452	
Si		6.70335002		0.05919953		0.49333139		-0.00017839		 0.00034771		 0.00001452	
Si		8.37165002		3.40020043		4.72166890		 0.00017280		-0.00033526		 0.00001344	
Si		1.67835000		2.93420002		0.83833080		-0.00017280		 0.00033526		-0.00001344	
Mg		0.00000000		0.00000000		0.00000000		0.00000000		0.00000000		0.00000000	
Mg		5.02500001		2.87500049		0.34500042		0.00000000		0.00000000		0.00000000	
Mg		5.02500001		0.29219973		2.43500044		0.00000000		0.00000000		0.00000000	
Mg		0.00000000		3.16720022		2.77999985		0.00000000		0.00000000		0.00000000	
Mg		2.51250001		1.72970048		2.60749964		 0.00000823		 0.00001328		 0.00001964	
Mg		7.53750002		4.60469997		2.95250006		-0.00000823		-0.00001328		-0.00001964	
Mg		7.53750002		1.72970048		2.60749964		 0.00001132		-0.00001115		-0.00000179	
Mg		2.51250001		4.60469997		2.95250006		-0.00001132		 0.00001115		 0.00000179	
O		8.23497002		0.12973746		1.08113981		 0.00021266		-0.00024279		-0.00027780	
O		1.81503001		0.45466301		3.78886006		-0.00021266		 0.00024279		 0.00027780	
O		3.20997001		3.00473695		1.42614023		 0.00022439		-0.00022461		-0.00026470	
O		6.84003002		3.32966350		4.13386048		-0.00022439		 0.00022461		 0.00026470	
O		3.35770501		0.13750913		1.14591105		-0.00025722		 0.00008811		-0.00032431	
O		6.69229502		0.44689134		3.72408882		 0.00025722		-0.00008811		 0.00032431	
O		8.38270502		3.01250861		1.49091147		-0.00025492		 0.00007406		-0.00035300	
O		1.66729500		3.32189083		4.06908924		 0.00025492		-0.00007406		 0.00035300	
O		0.91254000		1.68588951		1.28371766		 0.00091940		 0.00053955		 0.00040743	
O		9.13746003		4.64850892		4.27628205		-0.00091940		-0.00053955		-0.00040743	
O		9.13746003		2.00695988		3.95929600		 0.00036563		 0.00003375		-0.00060205	
O		0.91254000		4.32743956		1.60070370		-0.00036563		-0.00003375		 0.00060205	
O		5.93754002		4.56089001		1.62871808		 0.00090505		 0.00054985		 0.00039205	
O		4.11246001		1.77351044		3.93128163		-0.00090505		-0.00054985		-0.00039205	
O		4.11246001		4.88196037		4.30429642		 0.00035921		 0.00003185		-0.00060650	
O		5.93754002		1.45244007		1.25570429		-0.00035921		-0.00003185		 0.00060650	
