# total energy = -9074.77914527 eV	

CRYSTAL	
PRIMVEC	
		5.11309853		0.00000000		-0.40904686	
		0.00000000		5.18979898		0.00000000	
		-0.59025956		0.00000000		7.33060491	
PRIMCOORD
   28 1	
Mg		3.73268683		2.66755692		1.52951517		 0.00011539		-0.00014745		 0.00041205	
Mg		0.79015111		0.07265692		5.39204289		-0.00011539		-0.00014745		-0.00041205	
Si		1.13070974		0.06746696		1.73038900		-0.00010923		-0.00008141		-0.00000700	
Si		3.39212922		2.66236696		5.19116803		 0.00010923		-0.00008141		 0.00000700	
O		1.57154884		5.07043393		3.38486799		-0.00009087		 0.00044494		 0.00026464	
O		2.95128910		2.47553393		3.53669006		 0.00009087		 0.00044494		-0.00026464	
O		3.83532889		2.85438995		6.81632409		-0.00006078		 0.00004808		 0.00009147	
O		0.68750905		0.25948995		0.10523397		 0.00006078		 0.00004808		-0.00009147	
O		4.22852989		4.16740907		4.70910314		-0.00027379		-0.00016285		-0.00002512	
O		0.29430805		1.57250907		2.21245389		 0.00027379		-0.00016285		 0.00002512	
O		1.82750512		3.43045791		5.69507405		-0.00079983		 0.00047900		 0.00088763	
O		2.69533282		0.83555790		1.22648400		 0.00079983		 0.00047900		-0.00088763	
O		4.65833506		4.35424210		1.95801592		 0.00077871		 0.00008989		-0.00017912	
O		-0.13549712		1.75934210		4.96354213		-0.00077871		 0.00008989		 0.00017912	
O		1.89297519		3.65880910		1.15957102		 0.00031716		-0.00089096		 0.00051134	
O		2.62986275		1.06390910		5.76198703		-0.00031716		-0.00089096		-0.00051134	
H		2.04804880		4.16740907		3.39773108		 0.00008363		 0.00006625		-0.00008175	
H		2.47478914		1.57250907		3.52382697		-0.00008363		 0.00006625		 0.00008175	
H		4.34250698		3.62766984		6.82673377		-0.00015119		 0.00065104		 0.00003213	
H		0.18033096		1.03276983		0.09482378		 0.00015119		 0.00065104		-0.00003213	
H		1.10774577		2.83363113		5.54871997		-0.00005790		-0.00020832		-0.00042295	
H		3.41509217		0.23873112		1.37283809		 0.00005790		-0.00020832		 0.00042295	
H		3.53117079		4.93549900		5.04166088		 0.00001198		 0.00018430		-0.00012515	
H		0.99166715		2.34060002		1.87989718		-0.00001198		 0.00018430		 0.00012515	
H		4.51808193		4.42170906		2.87966012		-0.00042757		 0.00004255		-0.00013677	
H		0.00475601		1.82681008		4.04189794		 0.00042757		 0.00004255		 0.00013677	
H		2.07531278		3.59653108		0.21999381		 0.00005611		-0.00051507		-0.00009097	
H		2.44752516		1.00163108		6.70156373		-0.00005611		-0.00051507		 0.00009097	
