# total energy = -9075.53652365 eV	

CRYSTAL	
PRIMVEC	
		5.11309987		0.00000000		0.20452379	
		0.00000000		5.18980141		0.00000000	
		0.28937189		0.00000000		7.33014226	
PRIMCOORD
   28 1	
Mg		3.95347587		2.66755659		1.99509969		-0.00019818		 0.00071931		 0.00079091	
Mg		1.44899794		0.07265691		5.53956841		 0.00019818		 0.00071931		-0.00079091	
Si		1.35061896		0.06746706		1.88366677		-0.00016505		-0.00033251		 0.00010044	
Si		4.05185587		2.66236674		5.65100184		 0.00016505		-0.00033251		-0.00010044	
O		1.99553363		5.07043378		3.60737176		-0.00000093		 0.00041274		 0.00076736	
O		3.40693967		2.47553358		3.92729685		 0.00000093		 0.00041274		-0.00076736	
O		4.69561251		2.85438975		7.34538534		-0.00003504		-0.00022184		 0.00039992	
O		0.70686079		0.25949007		0.18928276		 0.00003504		-0.00022184		-0.00039992	
O		4.83811751		4.16740864		5.26529376		 0.00035725		 0.00030748		-0.00032458	
O		0.56435579		1.57250896		2.26937485		-0.00035725		 0.00030748		 0.00032458	
O		2.53297300		3.43045776		5.97081179		 0.00018001		-0.00065275		 0.00035304	
O		2.86950081		0.83555808		1.56385681		-0.00018001		-0.00065275		-0.00035304	
O		4.93981856		4.35424180		2.53953477		-0.00006022		-0.00025428		-0.00054895	
O		0.46265474		1.75934211		4.99513384		 0.00006022		-0.00025428		 0.00054895	
O		2.05130893		3.65880871		1.39939498		 0.00005395		 0.00003033		-0.00028843	
O		3.35116385		1.06390903		6.13527363		-0.00005395		 0.00003033		 0.00028843	
H		2.47819094		4.16740864		3.67790760		-0.00007960		-0.00040936		 0.00047948	
H		2.92428287		1.57250896		3.85676050		 0.00007960		-0.00040936		-0.00047948	
H		5.20894890		3.62766960		7.41714930		-0.00026130		-0.00013566		 0.00021631	
H		0.19352491		1.03276992		0.11751879		 0.00026130		-0.00013566		-0.00021631	
H		1.78858378		2.83363085		5.73611655		-0.00050501		-0.00057824		 0.00009574	
H		3.61388952		0.23873117		1.79855308		 0.00050501		-0.00057824		-0.00009574	
H		4.17418482		4.93549863		5.51684144		-0.00075263		 0.00047873		 0.00007222	
H		1.22828899		2.34059997		2.01782666		 0.00075263		 0.00047873		-0.00007222	
H		4.90951969		4.42170886		3.45314481		-0.00005363		 0.00048710		-0.00069243	
H		0.49295412		1.82680969		4.08152482		 0.00005363		 0.00048710		 0.00069243	
H		2.12193381		3.59653099		0.47276221		 0.00051118		 0.00014896		-0.00009319	
H		3.28054000		1.00163080		7.06190742		-0.00051118		 0.00014896		 0.00009319	
