# total energy = -9072.38171342 eV	

CRYSTAL	
PRIMVEC	
		5.11310166		0.00000000		0.81809854	
		0.00000000		5.18980018		0.00000000	
		1.16901032		0.00000000		7.32968470	
PRIMCOORD
   28 1	
Mg		4.17426405		2.66755707		2.46068597		 0.00015335		 0.00015243		 0.00022529	
Mg		2.10784482		0.07265699		5.68709469		-0.00015335		 0.00015243		-0.00022529	
Si		1.57052696		0.06746694		2.03694478		 0.00012154		 0.00012327		 0.00006635	
Si		4.71158191		2.66236703		6.11083588		-0.00012154		 0.00012327		-0.00006635	
O		2.41951773		5.07043384		3.82987673		-0.00045690		-0.00034323		 0.00020274	
O		3.86259166		2.47553375		4.31790393		 0.00045690		-0.00034323		-0.00020274	
O		5.55589683		2.85438984		7.87444768		 0.00040160		-0.00027378		-0.00034608	
O		0.72621308		0.25948975		0.27333194		-0.00040160		-0.00027378		 0.00034608	
O		5.44770594		4.16740872		5.82148487		-0.00005923		 0.00012535		 0.00029312	
O		0.83440397		1.57250915		2.32629579		 0.00005923		 0.00012535		-0.00029312	
O		3.23844063		3.43045775		6.24654959		 0.00007857		-0.00001077		 0.00023848	
O		3.04366875		0.83555818		1.90123107		-0.00007857		-0.00001077		-0.00023848	
O		5.22130187		4.35424200		3.12105389		-0.00010254		 0.00047855		 0.00013816	
O		1.06080803		1.75934191		5.02672676		 0.00010254		 0.00047855		-0.00013816	
O		2.20964382		3.65880879		1.63921905		-0.00030118		 0.00007566		-0.00002731	
O		4.07246556		1.06390870		6.50856161		 0.00030118		 0.00007566		 0.00002731	
H		2.90833201		4.16740872		3.95808577		 0.00028112		 0.00020755		 0.00036209	
H		3.37377686		1.57250915		4.18969489		-0.00028112		 0.00020755		-0.00036209	
H		6.07538948		3.62767008		8.00756559		 0.00009086		-0.00001859		-0.00008940	
H		0.20671991		1.03276999		0.14021506		-0.00009086		-0.00001859		 0.00008940	
H		2.46942200		2.83363070		5.92351275		-0.00075026		-0.00041942		-0.00031821	
H		3.81268791		0.23873113		2.22426687		 0.00075026		-0.00041942		 0.00031821	
H		4.81719875		4.93549892		5.99202360		-0.00028446		 0.00002751		-0.00031714	
H		1.46491115		2.34059986		2.15575706		 0.00028446		 0.00002751		 0.00031714	
H		5.30095762		4.42170894		4.02662872		-0.00001831		-0.00009651		-0.00000979	
H		0.98115176		1.82680989		4.12115090		 0.00001831		-0.00009651		 0.00000979	
H		2.16855481		3.59653086		0.72552905		 0.00006151		-0.00002802		-0.00040289	
H		4.11355457		1.00163077		7.42225161		-0.00006151		-0.00002802		 0.00040289	
