# total energy = -18528.6441143 eV	

CRYSTAL	
PRIMVEC	
		4.68600010		0.00000000		0.00000000	
		-2.34300005		4.05819324		0.00000000	
		0.00000000		0.00000000		11.96190092	
PRIMCOORD
   30 1	
O		1.42548123		0.13229703		2.88999497		 0.00069545		-0.00000164		 0.00009154	
O		0.91751882		3.92589809		9.07190501		-0.00069545		 0.00000164		-0.00009154	
O		3.85868725		1.16835385		2.88999497		-0.00034630		 0.00060310		 0.00009154	
O		-1.51568720		2.88984127		9.07190501		 0.00034630		-0.00060310		-0.00009154	
O		1.74483214		2.75754283		2.88999497		-0.00034915		-0.00060145		 0.00009154	
O		0.59816791		1.30065088		9.07190501		 0.00034915		 0.00060145		-0.00009154	
O		3.76848128		1.48502905		6.87729512		 0.00069613		-0.00000006		 0.00008768	
O		0.91751882		1.22043405		1.09730518		-0.00069609		-0.00000142		-0.00008338	
O		1.51568720		2.52108586		6.87729512		-0.00034801		 0.00060289		 0.00008768	
O		3.17031290		0.18437723		1.09730518		 0.00034927		-0.00060212		-0.00008338	
O		1.74483214		0.05208021		6.87729512		-0.00034812		-0.00060283		 0.00008768	
O		2.94116797		2.65338289		1.09730518		 0.00034682		 0.00060354		-0.00008338	
O		1.42548123		2.83776013		10.86459527		 0.00069609		 0.00000142		 0.00008338	
O		-1.42548123		2.57316607		5.08460533		-0.00069613		 0.00000006		-0.00008768	
O		-0.82731285		3.87381788		10.86459527		-0.00034927		 0.00060212		 0.00008338	
O		0.82731285		1.53710925		5.08460533		 0.00034801		-0.00060289		-0.00008768	
O		-0.59816791		1.40481222		10.86459527		-0.00034682		-0.00060354		 0.00008338	
O		0.59816791		4.00611491		5.08460533		 0.00034812		 0.00060283		-0.00008768	
Mg		0.00000000		0.00000000		4.28953732		0.00000000		-0.00000000		 0.00029420	
Mg		0.00000000		0.00000000		7.67236314		0.00000000		0.00000000		-0.00029420	
Mg		2.34300005		1.35273202		8.27683840		0.00000000		-0.00000000		 0.00029955	
Mg		2.34300005		1.35273202		11.65966329		0.00000000		-0.00000000		-0.00029423	
Mg		0.00000000		2.70546310		0.30223717		-0.00000000		0.00000000		 0.00029423	
Mg		0.00000000		2.70546310		3.68506298		0.00000000		-0.00000000		-0.00029955	
Si		0.00000000		0.00000000		1.87801810		-0.00000000		-0.00000000		 0.00032808	
Si		0.00000000		0.00000000		10.08388235		0.00000000		0.00000000		-0.00032808	
Si		2.34300005		1.35273202		5.86531919		-0.00000000		-0.00000000		 0.00033923	
Si		2.34300005		1.35273202		2.10928205		0.00000000		-0.00000000		-0.00035072	
Si		0.00000000		2.70546310		9.85261934		0.00000000		0.00000000		 0.00035072	
Si		0.00000000		2.70546310		6.09658220		0.00000000		0.00000000		-0.00033923	
