# total energy = -8279.04192494 eV

CRYSTAL
PRIMVEC
		4.52682466		0.00000000		0.00000000
		0.00000000		4.21100169		0.00000000
		0.00000000		0.00000000		4.21100169
PRIMECORD
   8 1
Mg		0.00000000		0.00000000		0.00000000		0.00000000		0.00000000		0.00000000
Mg		0.00000000		2.10549994		2.10549994		0.00000000		0.00000000		0.00000000
Mg		2.26341188		0.00000000		2.10549994		0.00000000		0.00000000		0.00000000
Mg		2.26341188		2.10549994		0.00000000		0.00000000		0.00000000		0.00000000
O		2.26341188		2.10549994		2.10549994		0.00000000		0.00000000		0.00000000
O		2.26341188		0.00000000		0.00000000		0.00000000		0.00000000		0.00000000
O		0.00000000		2.10549994		0.00000000		0.00000000		0.00000000		0.00000000
O		0.00000000		0.00000000		2.10549994		0.00000000		0.00000000		0.00000000
