# total energy = -49443.4196924 eV	

CRYSTAL	
PRIMVEC	
		5.08939982		0.00000000		0.00000000	
		0.00000000		13.96800031		-1.11743880	
		0.00000000		-0.69564970		8.69560094	
PRIMCOORD
   70 1	
Si		2.54469991		0.00000000		0.00000000		0.00000000		0.00000000		0.00000000	
Si		0.00000000		6.63617581		3.78908005		0.00000000		0.00000000		0.00000000	
Si		2.47349870		5.25923157		-0.42073916		 0.00026580		 0.00027104		-0.00002977	
Si		2.61590112		8.70876773		-0.69670117		-0.00026580		-0.00027104		 0.00002977	
Si		0.07120121		11.89540738		3.36834090		-0.00026580		 0.00027104		-0.00002977	
Si		5.01819861		1.37694476		4.20981768		 0.00026580		-0.00027104		 0.00002977	
Mg		0.86219522		2.42358797		-0.19388679		 0.00039897		-0.00013590		-0.00006698	
Mg		4.22720460		11.54441183		-0.92355303		-0.00039897		 0.00013590		 0.00006698	
Mg		1.68250469		9.05976379		3.59519275		-0.00039897		-0.00013590		-0.00006698	
Mg		3.40689513		4.21258784		3.98296685		 0.00039897		 0.00013590		 0.00006698	
Mg		0.80570289		4.29283902		2.45418799		 0.00036306		-0.00004278		-0.00020412	
Mg		4.28369694		8.97951362		5.12397161		-0.00036306		 0.00004278		 0.00020412	
Mg		4.28369694		9.22465983		2.05964194		 0.00032458		-0.00001572		 0.00004807	
Mg		0.80570289		4.04769180		5.51851766		-0.00032458		 0.00001572		-0.00004807	
Mg		1.73899703		11.37951579		0.61199778		 0.00032458		 0.00001572		-0.00004807	
Mg		3.35040280		1.89283584		6.96616181		-0.00032458		-0.00001572		 0.00004807	
Mg		3.35040280		2.34333679		1.33489206		 0.00036306		 0.00004278		 0.00020412	
Mg		1.73899703		10.92901484		6.24326702		-0.00036306		-0.00004278		-0.00020412	
Mg		2.54469991		6.76050883		2.23491476		 0.00056939		 0.00010119		-0.00040742	
Mg		2.54469991		6.51184279		5.34324382		-0.00056939		-0.00010119		 0.00040742	
Mg		0.00000000		-0.12433302		1.55416478		 0.00056939		-0.00010119		 0.00040742	
Mg		0.00000000		-0.57131516		7.14143463		-0.00056939		 0.00010119		-0.00040742	
Mg		2.54469991		-0.23783478		2.97293881		-0.00053083		-0.00008759		-0.00041057	
Mg		2.54469991		-0.45781289		5.72266061		 0.00053083		 0.00008759		 0.00041057	
Mg		0.00000000		6.87401059		0.81614074		-0.00053083		 0.00008759		 0.00041057	
Mg		0.00000000		6.39834053		6.76201784		 0.00053083		-0.00008759		-0.00041057	
O		1.69075002		5.66269374		0.89585295		 0.00038168		 0.00006332		-0.00015338	
O		3.39864980		7.60965891		6.68230562		-0.00038168		-0.00006332		 0.00015338	
O		3.39864980		8.08809761		0.70182111		 0.00003252		-0.00050296		 0.00005659	
O		1.69075002		5.18425504		6.87633899		-0.00003252		 0.00050296		-0.00005659	
O		0.85394989		12.51607852		1.96981912		 0.00003252		 0.00050296		-0.00005659	
O		4.23544892		0.75627311		5.60834098		-0.00003252		-0.00050296		 0.00005659	
O		4.23544892		0.97348208		2.89322710		 0.00038168		-0.00006332		 0.00015338	
O		0.85394989		12.29886955		4.68493300		-0.00038168		 0.00006332		-0.00015338	
O		2.50953216		3.62092475		-0.28967388		 0.00028590		 0.00014168		-0.00006024	
O		2.57986715		10.34707454		-0.82776594		-0.00028590		-0.00014168		 0.00006024	
O		0.03516775		10.25710057		3.49940566		-0.00028590		 0.00014168		-0.00006024	
O		5.05423207		3.01525208		4.07875393		 0.00028590		-0.00014168		 0.00006024	
O		4.02780191		5.78973585		-0.46317915		 0.00015464		 0.00037570		-0.00018030	
O		1.06159791		8.17826396		-0.65426118		-0.00015464		-0.00037570		 0.00018030	
O		3.60629782		12.42591166		3.32590090		-0.00015464		 0.00037570		-0.00018030	
O		1.48310200		0.84643997		4.25225870		 0.00015464		-0.00037570		 0.00018030	
O		1.81386210		0.92002302		1.17607989		-0.00009561		-0.00008815		-0.00009117	
O		3.27553773		12.35232861		6.40207971		 0.00009561		 0.00008815		 0.00009117	
O		3.27553773		12.84673937		0.22194313		-0.00015359		-0.00031488		 0.00035301	
O		1.81386210		0.42561175		7.35621698		 0.00015359		 0.00031488		-0.00035301	
O		0.73083781		7.75743574		2.44969710		-0.00015359		 0.00031488		-0.00035301	
O		4.35856201		5.51491589		5.12846198		 0.00015359		-0.00031488		 0.00035301	
O		4.35856201		5.71615279		2.61299966		-0.00009561		 0.00008815		 0.00009117	
O		0.73083781		7.55619883		4.96515994		 0.00009561		-0.00008815		-0.00009117	
O		5.00058979		3.40709413		1.10291213		-0.00029182		-0.00016686		 0.00039222	
O		0.08881003		9.86525852		6.47524696		 0.00029182		 0.00016686		-0.00039222	
O		0.08881003		10.33941143		0.54832685		 0.00078871		-0.00089944		-0.00031138	
O		5.00058979		2.93293969		7.02983275		-0.00078871		 0.00089944		 0.00031138	
O		2.63350994		10.26476368		2.12331287		 0.00078871		 0.00089944		 0.00031138	
O		2.45588988		3.00758795		5.45484672		-0.00078871		-0.00089944		-0.00031138	
O		2.45588988		3.22908168		2.68616690		-0.00029182		 0.00016686		-0.00039222	
O		2.63350994		10.04326944		4.89199167		 0.00029182		-0.00016686		 0.00039222	
O		0.99589376		12.86159431		-1.02892803		 0.00001116		-0.00014421		 0.00024767	
O		4.09350606		1.10640498		-0.08851179		-0.00001116		 0.00014421		-0.00024767	
O		1.54880615		5.52977083		3.87759184		-0.00001116		-0.00014421		 0.00024767	
O		3.54059367		7.74258080		3.70056674		 0.00001116		 0.00014421		-0.00024767	
H		4.69802498		4.15123869		0.60533474		-0.00011354		-0.00032059		-0.00057279	
H		0.39137485		9.12111243		6.97282383		 0.00011354		 0.00032059		 0.00057279	
H		0.39137485		9.66580443		0.16416979		-0.00014598		 0.00084064		 0.00032312	
H		4.69802498		3.60654669		7.41398981		 0.00014598		-0.00084064		-0.00032312	
H		2.93607476		10.93837068		2.50746993		-0.00014598		-0.00084064		-0.00032312	
H		2.15332506		2.33398196		5.07068966		 0.00014598		 0.00084064		 0.00032312	
H		2.15332506		2.48493712		3.18374480		-0.00011354		 0.00032059		 0.00057279	
H		2.93607476		10.78741552		4.39441479		 0.00011354		-0.00032059		-0.00057279	
