# total energy = -49431.0148112 eV	

CRYSTAL	
PRIMVEC	
		5.08939982		0.00000000		0.00000000	
		0.00000000		13.96800031		-2.23487761	
		0.00000000		-1.39129432		8.69560094	
PRIMCOORD
   70 1	
Si		2.54469991		0.00000000		0.00000000		0.00000000		0.00000000		0.00000000	
Si		0.00000000		6.28835198		3.23036014		0.00000000		0.00000000		0.00000000	
Si		2.47349870		5.25923157		-0.84147679		 0.00069290		 0.00015871		 0.00004745	
Si		2.61590112		8.70876773		-1.39340286		-0.00069290		-0.00015871		-0.00004745	
Si		0.07120121		11.54758355		2.38888285		-0.00069290		 0.00015871		 0.00004745	
Si		5.01819861		1.02912092		4.07183693		 0.00069290		-0.00015871		-0.00004745	
Mg		0.86219522		2.42358797		-0.38777410		-0.00023153		 0.00007643		 0.00050666	
Mg		4.22720460		11.54441183		-1.84710606		 0.00023153		-0.00007643		-0.00050666	
Mg		1.68250469		8.71193944		2.84258605		 0.00023153		 0.00007643		 0.00050666	
Mg		3.40689513		3.86476401		3.61813373		-0.00023153		-0.00007643		-0.00050666	
Mg		0.80570289		4.06758779		2.09274085		-0.00024906		 0.00011086		-0.00059592	
Mg		4.28369694		8.50911668		4.36797892		 0.00024906		-0.00011086		 0.00059592	
Mg		4.28369694		8.99940961		1.30364875		-0.00004282		 0.00026429		 0.00001431	
Mg		0.80570289		3.57729486		5.15707001		 0.00004282		-0.00026429		-0.00001431	
Mg		1.73899703		11.25694268		-0.30816978		-0.00004282		-0.00026429		-0.00001431	
Mg		3.35040280		1.31976077		6.76888853		 0.00004282		 0.00026429		 0.00001431	
Mg		3.35040280		2.22076368		1.13761878		-0.00024906		-0.00011086		 0.00059592	
Mg		1.73899703		10.35593977		5.32309997		 0.00024906		 0.00011086		-0.00059592	
Mg		2.54469991		6.53701853		1.67619485		-0.00023777		-0.00034180		-0.00032058	
Mg		2.54469991		6.03968594		4.78452391		 0.00023777		 0.00034180		 0.00032058	
Mg		0.00000000		-0.24866604		1.55416478		-0.00023777		 0.00034180		 0.00032058	
Mg		0.00000000		-1.14262981		7.14143463		 0.00023777		-0.00034180		-0.00032058	
Mg		2.54469991		-0.47567007		2.97293881		 0.00012412		 0.00008461		 0.00010912	
Mg		2.54469991		-0.91562578		5.72266061		-0.00012412		-0.00008461		-0.00010912	
Mg		0.00000000		6.76402154		0.25742083		 0.00012412		-0.00008461		-0.00010912	
Mg		0.00000000		5.81268191		6.20329793		-0.00012412		 0.00008461		 0.00010912	
O		1.69075002		5.55408900		0.43414922		 0.00013741		 0.00063182		-0.00025337	
O		3.39864980		7.02261496		6.02656954		-0.00013741		-0.00063182		 0.00025337	
O		3.39864980		7.97949287		0.04608502		-0.00011745		 0.00037626		-0.00007233	
O		1.69075002		4.59721160		6.41463475		 0.00011745		-0.00037626		 0.00007233	
O		0.85394989		12.27685942		0.94939496		-0.00011745		-0.00037626		 0.00007233	
O		4.23544892		0.29984504		5.51132379		 0.00011745		 0.00037626		-0.00007233	
O		4.23544892		0.73426298		2.79620991		 0.00013741		-0.00063182		 0.00025337	
O		0.85394989		11.84244047		3.66450885		-0.00013741		 0.00063182		-0.00025337	
O		2.50953216		3.62092475		-0.57934776		-0.00009425		 0.00014222		 0.00026173	
O		2.57986715		10.34707454		-1.65553189		 0.00009425		-0.00014222		-0.00026173	
O		0.03516775		9.90927673		2.65101187		 0.00009425		 0.00014222		 0.00026173	
O		5.05423207		2.66742773		3.80970790		-0.00009425		-0.00014222		-0.00026173	
O		4.02780191		5.78973585		-0.92635780		 0.00027498		 0.00001407		 0.00017369	
O		1.06159791		8.17826396		-1.30852185		-0.00027498		-0.00001407		-0.00017369	
O		3.60629782		12.07808782		2.30400184		-0.00027498		 0.00001407		 0.00017369	
O		1.48310200		0.49861613		4.15671794		 0.00027498		-0.00001407		-0.00017369	
O		1.81386210		0.81940508		1.09442912		 0.00004717		 0.00007989		-0.00042906	
O		3.27553773		11.75729939		5.36629065		-0.00004717		-0.00007989		 0.00042906	
O		3.27553773		12.74612143		-0.81384593		 0.00024501		-0.00049746		-0.00053263	
O		1.81386210		-0.16941696		7.27456570		-0.00024501		 0.00049746		 0.00053263	
O		0.73083781		7.51023087		1.80932591		 0.00024501		 0.00049746		 0.00053263	
O		4.35856201		5.06647360		4.65139386		-0.00024501		-0.00049746		-0.00053263	
O		4.35856201		5.46894792		2.13593102		 0.00004717		-0.00007989		 0.00042906	
O		0.73083781		7.10775655		4.32478773		-0.00004717		 0.00007989		-0.00042906	
O		5.00058979		3.29634675		0.82148511		 0.00030319		-0.00014712		-0.00012606	
O		0.08881003		9.28035771		5.63923364		-0.00030319		 0.00014712		 0.00012606	
O		0.08881003		10.22866457		-0.28768596		-0.00059272		-0.00046398		-0.00031800	
O		5.00058979		2.34803889		6.74840471		 0.00059272		 0.00046398		 0.00031800	
O		2.63350994		10.02768773		1.28316595		-0.00059272		 0.00046398		 0.00031800	
O		2.45588988		2.54901674		5.17755383		 0.00059272		-0.00046398		-0.00031800	
O		2.45588988		2.99200573		2.40887503		 0.00030319		 0.00014712		 0.00012606	
O		2.63350994		9.58469873		4.05184475		-0.00030319		-0.00014712		-0.00012606	
O		0.99589376		12.86159431		-2.05785505		 0.00008032		-0.00029329		-0.00090601	
O		4.09350606		1.10640498		-0.17702510		-0.00008032		 0.00029329		 0.00090601	
O		1.54880615		5.18194699		3.40738473		-0.00008032		-0.00029329		-0.00090601	
O		3.54059367		7.39475696		3.05333504		 0.00008032		 0.00029329		 0.00090601	
H		4.69802498		4.07576085		0.26719807		-0.00020076		 0.00050170		-0.00016255	
H		0.39137485		8.50094260		6.19352170		 0.00020076		-0.00050170		 0.00016255	
H		0.39137485		9.59032761		-0.61513285		-0.00002752		-0.00075483		-0.00037715	
H		4.69802498		2.98637686		7.07585161		 0.00002752		 0.00075483		 0.00037715	
H		2.93607476		10.66602468		1.61061183		-0.00002752		 0.00075483		 0.00037715	
H		2.15332506		1.91067979		4.85010693		 0.00002752		-0.00075483		-0.00037715	
H		2.15332506		2.21259113		2.96316207		-0.00020076		-0.00050170		 0.00016255	
H		2.93607476		10.36411385		3.49755770		 0.00020076		 0.00050170		-0.00016255	
