# total energy = -49443.4196924 eV	

CRYSTAL	
PRIMVEC	
		5.08939982		0.00000000		0.00000000	
		0.00000000		13.96800031		1.11743880	
		0.00000000		0.69564970		8.69560094	
PRIMCOORD
   70 1	
Si		2.54469991		0.00000000		0.00000000		0.00000000		0.00000000		0.00000000	
Si		0.00000000		7.33182399		4.90651987		0.00000000		0.00000000		0.00000000	
Si		2.47349870		5.25923157		0.42073916		 0.00026579		 0.00027104		 0.00002977	
Si		2.61590112		8.70876773		0.69670117		-0.00026579		-0.00027104		-0.00002977	
Si		0.07120121		12.59105556		5.32725801		-0.00026579		 0.00027104		 0.00002977	
Si		5.01819861		2.07259293		4.48578072		 0.00026579		-0.00027104		-0.00002977	
Mg		0.86219522		2.42358797		0.19388679		 0.00039899		-0.00013590		 0.00006702	
Mg		4.22720460		11.54441183		0.92355303		-0.00039899		 0.00013590		-0.00006702	
Mg		1.68250469		9.75541145		5.10040667		-0.00039899		-0.00013590		 0.00006702	
Mg		3.40689513		4.90823602		4.71263308		 0.00039899		 0.00013590		-0.00006702	
Mg		0.80570289		4.74333997		3.17708176		-0.00032458		 0.00001572		 0.00004805	
Mg		4.28369694		9.92030750		6.63595799		 0.00032458		-0.00001572		-0.00004805	
Mg		4.28369694		9.67516180		3.57162781		-0.00036309		 0.00004283		-0.00020412	
Mg		0.80570289		4.98848669		6.24141194		 0.00036309		-0.00004283		 0.00020412	
Mg		1.73899703		11.62466251		2.45233188		-0.00036309		-0.00004283		 0.00020412	
Mg		3.35040280		3.03898497		7.36070684		 0.00036309		 0.00004283		-0.00020412	
Mg		3.35040280		2.58848402		1.72943811		-0.00032458		-0.00001572		-0.00004805	
Mg		1.73899703		12.07516346		8.08360163		 0.00032458		 0.00001572		 0.00004805	
Mg		2.54469991		7.20749097		3.35235509		-0.00056939		-0.00010119		-0.00040742	
Mg		2.54469991		7.45615650		6.46068364		 0.00056939		 0.00010119		 0.00040742	
Mg		0.00000000		0.12433302		1.55416478		-0.00056939		 0.00010119		 0.00040742	
Mg		0.00000000		0.57131516		7.14143463		 0.00056939		-0.00010119		-0.00040742	
Mg		2.54469991		0.23783478		2.97293881		 0.00053083		 0.00008758		-0.00041056	
Mg		2.54469991		0.45781289		5.72266061		-0.00053083		-0.00008758		 0.00041056	
Mg		0.00000000		7.09398870		1.93358107		 0.00053083		-0.00008758		 0.00041056	
Mg		0.00000000		7.56965877		7.87945766		-0.00053083		 0.00008758		-0.00041056	
O		1.69075002		5.87990271		1.81926093		-0.00003253		 0.00050298		 0.00005658	
O		3.39864980		8.78374477		7.99377881		 0.00003253		-0.00050298		-0.00005658	
O		3.39864980		8.30530658		2.01329277		-0.00038166		-0.00006334		-0.00015338	
O		1.69075002		6.35834192		7.79974596		 0.00038166		 0.00006334		 0.00015338	
O		0.85394989		12.99451773		4.01066692		-0.00038166		 0.00006334		 0.00015338	
O		4.23544892		1.66912974		5.80237282		 0.00038166		-0.00006334		-0.00015338	
O		4.23544892		1.45192078		3.08725894		-0.00003253		-0.00050298		-0.00005658	
O		0.85394989		13.21172670		6.72578081		 0.00003253		 0.00050298		 0.00005658	
O		2.50953216		3.62092475		0.28967388		 0.00028591		 0.00014168		 0.00006024	
O		2.57986715		10.34707454		0.82776594		-0.00028591		-0.00014168		-0.00006024	
O		0.03516775		10.95274875		5.19619375		-0.00028591		 0.00014168		 0.00006024	
O		5.05423207		3.71089975		4.61684599		 0.00028591		-0.00014168		-0.00006024	
O		4.02780191		5.78973585		0.46317915		 0.00015461		 0.00037572		 0.00018033	
O		1.06159791		8.17826396		0.65426118		-0.00015461		-0.00037572		-0.00018033	
O		3.60629782		13.12155933		5.36969903		-0.00015461		 0.00037572		 0.00018033	
O		1.48310200		1.54208815		4.44334072		 0.00015461		-0.00037572		-0.00018033	
O		1.81386210		1.12125993		1.33938295		 0.00015356		 0.00031489		 0.00035302	
O		3.27553773		13.54238755		8.47365680		-0.00015356		-0.00031489		-0.00035302	
O		3.27553773		13.04797678		2.29351971		 0.00009560		 0.00008815		-0.00009115	
O		1.81386210		1.61567120		7.51951953		-0.00009560		-0.00008815		 0.00009115	
O		0.73083781		8.25184650		3.73043999		 0.00009560		-0.00008815		 0.00009115	
O		4.35856201		6.41180097		6.08259976		-0.00009560		 0.00008815		-0.00009115	
O		4.35856201		6.21056356		3.56713692		 0.00015356		-0.00031489		-0.00035302	
O		0.73083781		8.45308392		6.24590180		-0.00015356		 0.00031489		 0.00035302	
O		5.00058979		3.62858786		1.66576718		-0.00078871		 0.00089942		-0.00031133	
O		0.08881003		11.03505961		8.14727257		 0.00078871		-0.00089942		 0.00031133	
O		0.08881003		10.56090669		2.22035195		 0.00029183		 0.00016683		 0.00039220	
O		5.00058979		4.10274180		7.59268678		-0.00029183		-0.00016683		-0.00039220	
O		2.63350994		10.73891761		3.80360774		 0.00029183		-0.00016683		-0.00039220	
O		2.45588988		3.92472986		6.00943200		-0.00029183		 0.00016683		 0.00039220	
O		2.45588988		3.70323562		3.24075270		-0.00078871		-0.00089942		 0.00031133	
O		2.63350994		10.96041186		6.57228654		 0.00078871		 0.00089942		-0.00031133	
O		0.99589376		12.86159431		1.02892803		 0.00001113		-0.00014422		-0.00024765	
O		4.09350606		1.10640498		0.08851179		-0.00001113		 0.00014422		 0.00024765	
O		1.54880615		6.22541901		4.81800707		-0.00001113		-0.00014422		-0.00024765	
O		3.54059367		8.43822847		4.99503166		 0.00001113		 0.00014422		 0.00024765	
H		4.69802498		4.30219487		1.28161012		 0.00014596		-0.00084059		 0.00032309	
H		0.39137485		10.36145260		8.53142963		-0.00014596		 0.00084059		-0.00032309	
H		0.39137485		9.81676061		1.72277507		 0.00011353		 0.00032063		-0.00057278	
H		4.69802498		4.84688687		8.09026366		-0.00011353		-0.00032063		 0.00057278	
H		2.93607476		11.48306370		4.30118462		 0.00011353		-0.00032063		 0.00057278	
H		2.15332506		3.18058479		5.51185461		-0.00011353		 0.00032063		-0.00057278	
H		2.15332506		3.02963014		3.62490975		 0.00014596		 0.00084059		-0.00032309	
H		2.93607476		11.63401835		6.18812999		-0.00014596		-0.00084059		 0.00032309	
