# total energy = -18511.5391142 eV	

CRYSTAL	
PRIMVEC	
		7.02600000		0.00000000		0.28103972	
		0.00000000		6.22800274		0.00000000	
		-0.26481074		0.00000000		4.22243051	
PRIMCOORD
   30 1	
Mg		0.25801398		1.55699998		2.28768567		-0.00092075		0.00000000		-0.00047817	
Mg		6.50317598		4.67099994		2.21578315		 0.00092075		0.00000000		 0.00047817	
Mg		4.88614988		1.55699998		4.07712564		 0.00077319		-0.00000000		-0.00052041	
Mg		1.87504078		4.67099994		0.42634178		-0.00077319		-0.00000000		 0.00052041	
Mg		2.81333007		1.55699998		0.29032005		 0.00052721		0.00000000		 0.00025959	
Mg		3.94785988		4.67099994		4.21314807		-0.00052721		0.00000000		-0.00025959	
Si		0.00000000		0.00000000		0.00000000		0.00000000		0.00000000		0.00000000	
Si		0.00000000		3.11399996		0.00000000		-0.00000000		0.00000000		0.00000000	
Si		2.17161123		3.12645577		2.43619064		-0.00021740		-0.00032793		 0.00021220	
Si		4.58957873		3.10154415		2.06727678		 0.00021740		 0.00032793		-0.00021220	
Si		4.58957873		0.01245581		2.06727678		 0.00021740		-0.00032793		-0.00021220	
Si		2.17161123		6.21554341		2.43619064		-0.00021740		 0.00032793		 0.00021220	
O		5.52751855		3.48767984		0.81372418		 0.00000381		-0.00014603		-0.00015661	
O		1.23367211		2.74032008		3.68974465		-0.00000381		 0.00014603		 0.00015661	
O		1.23367211		0.37367988		3.68974465		-0.00000381		-0.00014603		 0.00015661	
O		5.52751855		5.85432004		0.81372418		 0.00000381		 0.00014603		-0.00015661	
O		5.97429984		2.74654798		3.01159991		-0.00022716		 0.00045009		-0.00026330	
O		0.78689082		3.48145194		1.49186821		 0.00022716		-0.00045009		 0.00026330	
O		0.78689082		5.86054795		1.49186821		 0.00022716		 0.00045009		 0.00026330	
O		5.97429984		0.36745198		3.01159991		-0.00022716		-0.00045009		-0.00026330	
O		2.03635313		1.55699998		1.89741961		-0.00057095		0.00000000		 0.00059663	
O		4.72483753		4.67099994		2.60604781		 0.00057095		0.00000000		-0.00059663	
O		3.15355914		3.45653962		1.15476610		 0.00053639		-0.00007718		-0.00005927	
O		3.60763081		2.77145960		3.34870202		-0.00053639		 0.00007718		 0.00005927	
O		3.60763081		0.34253966		3.34870202		-0.00053639		-0.00007718		 0.00005927	
O		3.15355914		5.88545956		1.15476610		 0.00053639		 0.00007718		-0.00005927	
O		4.44185849		1.55699998		1.50260971		 0.00021375		0.00000000		-0.00044613	
O		2.31933217		4.67099994		3.00085911		-0.00021375		0.00000000		 0.00044613	
O		6.84070983		1.55699998		0.76465895		 0.00023464		0.00000000		-0.00003796	
O		-0.07951987		4.67099994		3.73880917		-0.00023464		0.00000000		 0.00003796	
