# total energy = -18503.3899661 eV	

CRYSTAL	
PRIMVEC	
		7.02600240		0.00000000		-1.12416351	
		0.00000000		6.22800007		0.00000000	
		-1.11277182		0.00000000		4.30930652	
PRIMCOORD
   30 1	
Mg		-0.19818922		1.55699966		2.25433097		-0.00051080		0.00000000		 0.00015434	
Mg		6.11141767		4.67099969		0.93081772		 0.00051080		0.00000000		-0.00015434	
Mg		4.10856999		1.55699966		3.13099864		 0.00030617		0.00000000		 0.00047211	
Mg		1.80465988		4.67099969		0.05414935		-0.00030617		0.00000000		-0.00047211	
Mg		2.77771582		1.55699966		-0.27092105		 0.00038668		0.00000000		-0.00012117	
Mg		3.13551405		4.67099969		3.45606975		-0.00038668		0.00000000		 0.00012117	
Si		0.00000000		0.00000000		0.00000000		0.00000000		0.00000000		0.00000000	
Si		0.00000000		3.11400003		0.00000000		0.00000000		0.00000000		0.00000000	
Si		1.70099186		3.12645619		2.02069301		-0.00078960		 0.00032662		-0.00040557	
Si		4.21223658		3.10154388		1.16445498		 0.00078960		-0.00032662		 0.00040557	
Si		4.21223658		0.01245616		1.16445498		 0.00078960		 0.00032662		 0.00040557	
Si		1.70099186		6.21554391		2.02069301		-0.00078960		-0.00032662		-0.00040557	
O		5.40880391		3.48767975		-0.28703166		-0.00021193		 0.00029931		 0.00033391	
O		0.50442525		2.74031960		3.47217964		 0.00021193		-0.00029931		-0.00033391	
O		0.50442525		0.37367972		3.47217964		 0.00021193		 0.00029931		-0.00033391	
O		5.40880391		5.85431963		-0.28703166		-0.00021193		-0.00029931		 0.00033391	
O		5.41888496		2.74654768		1.83895664		-0.00044943		 0.00015454		-0.00025785	
O		0.49434420		3.48145167		1.34619205		 0.00044943		-0.00015454		 0.00025785	
O		0.49434420		5.86054771		1.34619205		 0.00044943		 0.00015454		 0.00025785	
O		5.41888496		0.36745164		1.83895664		-0.00044943		-0.00015454		-0.00025785	
O		1.67257666		1.55699966		1.50469960		 0.00017650		0.00000000		 0.00068532	
O		4.24065179		4.67099969		1.68044767		-0.00017650		0.00000000		-0.00068532	
O		2.94750478		3.45654007		0.53229684		-0.00046852		 0.00020509		-0.00028826	
O		2.96572509		2.77145999		2.65285185		 0.00046852		-0.00020509		 0.00028826	
O		2.96572509		0.34254004		2.65285185		 0.00046852		 0.00020509		 0.00028826	
O		2.94750478		5.88546003		0.53229684		-0.00046852		-0.00020509		-0.00028826	
O		4.17644701		1.55699966		0.62485492		 0.00029446		-0.00000000		-0.00004601	
O		1.73678286		4.67099969		2.56029377		-0.00029446		-0.00000000		 0.00004601	
O		6.74234698		1.55699966		-0.59954913		-0.00034080		0.00000000		 0.00070177	
O		-0.82911711		4.67099969		3.78469711		 0.00034080		0.00000000		-0.00070177	
