# total energy = -18500.1603732 eV	

CRYSTAL	
PRIMVEC	
		7.02600099		0.00000000		0.84311842	
		0.00000000		6.22800174		0.00000000	
		0.07437303		0.00000000		4.18767568	
PRIMCOORD
   30 1	
Mg		0.44049567		1.55699973		2.30102723		-0.00009949		0.00000000		-0.00010734	
Mg		6.65987905		4.67099989		2.72976899		 0.00009949		0.00000000		 0.00010734	
Mg		5.19718164		1.55699973		4.45557568		 0.00045613		-0.00000000		 0.00033825	
Mg		1.90319309		4.67099989		0.57521983		-0.00045613		0.00000000		-0.00033825	
Mg		2.82757625		1.55699973		0.51481705		 0.00007052		-0.00000000		 0.00020112	
Mg		4.27279919		4.67099989		4.51597918		-0.00007052		-0.00000000		-0.00020112	
Si		0.00000000		0.00000000		0.00000000		0.00000000		0.00000000		0.00000000	
Si		0.00000000		3.11400016		0.00000000		0.00000000		0.00000000		0.00000000	
Si		2.35985764		3.12645605		2.60239014		 0.00012437		-0.00008511		-0.00011137	
Si		4.74051567		3.10154427		2.42840608		-0.00012437		 0.00008511		 0.00011137	
Si		4.74051567		0.01245589		2.42840608		-0.00012437		-0.00008511		 0.00011137	
Si		2.35985764		6.21554372		2.60239014		 0.00012437		 0.00008511		-0.00011137	
O		5.57500371		3.48767970		1.25402622		 0.00015910		-0.00002443		-0.00056960	
O		1.52537031		2.74031991		3.77677000		-0.00015910		 0.00002443		 0.00056960	
O		1.52537031		0.37368025		3.77677000		-0.00015910		-0.00002443		 0.00056960	
O		5.57500371		5.85432007		1.25402622		 0.00015910		 0.00002443		-0.00056960	
O		6.19646502		2.74654786		3.48065778		-0.00004197		-0.00017987		 0.00006872	
O		0.90390900		3.48145175		1.55013774		 0.00004197		 0.00017987		-0.00006872	
O		0.90390900		5.86054802		1.55013774		 0.00004197		-0.00017987		-0.00006872	
O		6.19646502		0.36745230		3.48065778		-0.00004197		 0.00017987		 0.00006872	
O		2.18186267		1.55699973		2.05450788		-0.00044346		-0.00000000		-0.00057219	
O		4.91851205		4.67099989		2.97628763		 0.00044346		0.00000000		 0.00057219	
O		3.23598113		3.45653997		1.40375378		 0.00012300		 0.00021344		 0.00005297	
O		3.86439360		2.77145964		3.62704173		-0.00012300		-0.00021344		-0.00005297	
O		3.86439360		0.34253981		3.62704173		-0.00012300		 0.00021344		-0.00005297	
O		3.23598113		5.88545980		1.40375378		 0.00012300		-0.00021344		 0.00005297	
O		4.54802256		1.55699973		1.85371202		-0.00038032		0.00000000		 0.00042715	
O		2.55235075		4.67099989		3.17708420		 0.00038032		0.00000000		-0.00042715	
O		6.88005507		1.55699973		1.31034168		-0.00019170		0.00000000		-0.00006607	
O		0.22031895		4.67099989		3.72045384		 0.00019170		0.00000000		 0.00006607	
