# total energy = -41269.0772366 eV	

CRYSTAL	
PRIMVEC	
		8.11999732		0.64959816		0.00000000	
		0.64959816		8.11999732		0.00000000	
		0.00000000		0.00000000		8.11999732	
PRIMCOORD
   56 1	
Si		1.09620025		1.09620025		1.01499987		-0.00000001		-0.00000001		-0.00035511	
Si		7.67339930		7.67339930		7.10499990		 0.00000001		 0.00000001		 0.00035511	
Si		5.15619972		1.42100014		5.07499934		-0.00000000		-0.00000001		-0.00035511	
Si		3.61339983		7.34859941		3.04499961		0.00000000		 0.00000001		 0.00035511	
Si		1.42100014		5.15619972		5.07499934		-0.00000001		-0.00000000		-0.00035511	
Si		7.34859941		3.61339983		3.04499961		 0.00000001		0.00000000		 0.00035511	
Si		5.48099962		5.48099962		1.01499987		-0.00000000		-0.00000000		-0.00035511	
Si		3.28859993		3.28859993		7.10499990		0.00000000		0.00000000		 0.00035511	
Mg		4.38480018		4.38480018		4.05999947		0.00000000		0.00000000		0.00000000	
Mg		2.51719958		6.25239997		0.00000000		 0.00000001		-0.00000001		0.00000000	
Mg		6.25239997		2.51719958		0.00000000		-0.00000001		 0.00000001		0.00000000	
Mg		6.09000003		0.48719984		2.02999974		-0.00000001		 0.00000001		-0.00000000	
Mg		2.02999974		0.16239995		6.09000003		 0.00000001		-0.00000001		0.00000000	
Mg		0.16239995		2.02999974		6.09000003		-0.00000001		 0.00000001		0.00000000	
Mg		0.48719984		6.09000003		2.02999974		 0.00000001		-0.00000001		-0.00000000	
Mg		4.05999947		0.32479989		0.00000000		0.00000000		0.00000000		0.00000000	
Mg		2.19239968		2.19239968		4.05999947		-0.00000000		-0.00000000		-0.00000001	
Mg		6.57719987		6.57719987		4.05999947		0.00000000		0.00000000		 0.00000001	
Mg		6.41479992		4.54720013		6.09000003		-0.00000001		 0.00000001		0.00000000	
Mg		2.35479963		4.22239942		2.02999974		 0.00000001		-0.00000001		-0.00000000	
Mg		0.32479989		4.05999947		0.00000000		0.00000000		0.00000000		0.00000000	
Mg		4.22239942		2.35479963		2.02999974		-0.00000001		 0.00000001		-0.00000000	
Mg		4.54720013		6.41479992		6.09000003		 0.00000001		-0.00000001		0.00000000	
Mg		0.00000000		0.00000000		4.05999947		0.00000000		0.00000000		0.00000000	
O		2.11873511		2.11873511		1.96179213		 0.00018382		 0.00018382		-0.00025065	
O		6.65086362		6.65086362		6.15820763		-0.00018382		-0.00018382		 0.00025065	
O		4.13366404		0.39846528		6.02179161		-0.00018383		-0.00018382		-0.00025066	
O		4.63593469		8.37113590		2.09820815		 0.00018383		 0.00018382		 0.00025066	
O		0.54995129		6.02724858		4.12820789		 0.00011260		-0.00011259		 0.00027050	
O		8.21964826		2.74235097		3.99179187		-0.00011260		 0.00011259		-0.00027050	
O		6.35204847		4.60995076		0.06820760		-0.00011261		 0.00011260		 0.00027051	
O		2.41755108		4.15964878		8.05179135		 0.00011261		-0.00011260		-0.00027051	
O		8.37113590		4.63593469		2.09820815		 0.00018382		 0.00018383		 0.00025066	
O		0.39846528		4.13366404		6.02179161		-0.00018382		-0.00018383		-0.00025066	
O		4.15964878		2.41755108		8.05179135		-0.00011260		 0.00011261		-0.00027051	
O		4.60995076		6.35204847		0.06820760		 0.00011260		-0.00011261		 0.00027051	
O		2.74235097		8.21964826		3.99179187		 0.00011259		-0.00011260		-0.00027050	
O		6.02724858		0.54995129		4.12820789		-0.00011259		 0.00011260		 0.00027050	
O		2.44353501		6.17873540		6.02179161		 0.00018381		 0.00018382		-0.00025066	
O		6.32606373		2.59086496		2.09820815		-0.00018381		-0.00018382		 0.00025066	
O		4.45846394		4.45846394		1.96179213		-0.00018382		-0.00018382		-0.00025067	
O		4.31113480		4.31113480		6.15820763		 0.00018382		 0.00018382		 0.00025067	
O		0.22515058		1.96724910		0.06820760		 0.00011260		-0.00011260		 0.00027050	
O		8.54444897		6.80235045		8.05179135		-0.00011260		 0.00011260		-0.00027050	
O		8.69593579		8.69593579		6.15820763		 0.00018383		 0.00018383		 0.00025065	
O		0.07366538		0.07366538		1.96179213		-0.00018383		-0.00018383		-0.00025065	
O		4.48444868		6.47755056		3.99179187		-0.00011260		 0.00011260		-0.00027051	
O		4.28515087		2.29204899		4.12820789		 0.00011260		-0.00011260		 0.00027051	
O		6.17873540		2.44353501		6.02179161		 0.00018382		 0.00018381		-0.00025066	
O		2.59086496		6.32606373		2.09820815		-0.00018382		-0.00018381		 0.00025066	
O		2.29204899		4.28515087		4.12820789		-0.00011260		 0.00011260		 0.00027051	
O		6.47755056		4.48444868		3.99179187		 0.00011260		-0.00011260		-0.00027051	
O		6.80235045		8.54444897		8.05179135		 0.00011260		-0.00011260		-0.00027050	
O		1.96724910		0.22515058		0.06820760		-0.00011260		 0.00011260		 0.00027050	
O		6.50353530		6.50353530		1.96179213		 0.00018380		 0.00018380		-0.00025067	
O		2.26606507		2.26606507		6.15820763		-0.00018380		-0.00018380		 0.00025067	
