# total energy = -41251.5609153 eV	

CRYSTAL	
PRIMVEC	
		8.12000311		1.29920412		0.00000000	
		1.29920412		8.12000311		0.00000000	
		0.00000000		0.00000000		8.12000311	
PRIMCOORD
   56 1	
Si		1.17740008		1.17740008		1.01500018		-0.00000005		-0.00000005		-0.00012853	
Si		8.24179975		8.24179975		7.10500046		 0.00000005		 0.00000005		 0.00012853	
Si		5.23739999		1.82699967		5.07500010		 0.00000005		 0.00000005		-0.00012847	
Si		4.18179983		7.59220016		3.04499973		-0.00000005		-0.00000005		 0.00012847	
Si		1.82699967		5.23739999		5.07500010		 0.00000005		 0.00000005		-0.00012847	
Si		7.59220016		4.18179983		3.04499973		-0.00000005		-0.00000005		 0.00012847	
Si		5.88700041		5.88700041		1.01500018		-0.00000005		-0.00000005		-0.00012853	
Si		3.53220024		3.53220024		7.10500046		 0.00000005		 0.00000005		 0.00012853	
Mg		4.70960033		4.70960033		4.05999991		0.00000000		0.00000000		0.00000000	
Mg		3.00439975		6.41480007		0.00000000		-0.00000000		0.00000000		0.00000000	
Mg		6.41480007		3.00439975		0.00000000		0.00000000		-0.00000000		0.00000000	
Mg		6.09000028		0.97440021		2.03000037		 0.00000003		 0.00000003		0.00000000	
Mg		2.03000037		0.32479980		6.09000028		-0.00000003		-0.00000003		-0.00000000	
Mg		0.32479980		2.03000037		6.09000028		-0.00000003		-0.00000003		-0.00000000	
Mg		0.97440021		6.09000028		2.03000037		 0.00000003		 0.00000003		0.00000000	
Mg		4.05999991		0.64960041		0.00000000		0.00000000		0.00000000		0.00000000	
Mg		2.35480016		2.35480016		4.05999991		-0.00000000		-0.00000000		-0.00000001	
Mg		7.06439967		7.06439967		4.05999991		0.00000000		0.00000000		 0.00000001	
Mg		6.73959987		5.03440012		6.09000028		-0.00000003		-0.00000003		-0.00000000	
Mg		2.67959996		4.38479971		2.03000037		 0.00000003		 0.00000003		0.00000000	
Mg		0.64960041		4.05999991		0.00000000		0.00000000		0.00000000		0.00000000	
Mg		4.38479971		2.67959996		2.03000037		 0.00000003		 0.00000003		0.00000000	
Mg		5.03440012		6.73959987		6.09000028		-0.00000003		-0.00000003		-0.00000000	
Mg		0.00000000		0.00000000		4.05999991		0.00000000		0.00000000		0.00000000	
O		2.27567906		2.27567906		1.96179238		-0.00015264		-0.00015264		 0.00007703	
O		7.14352077		7.14352077		6.15820827		 0.00015264		 0.00015264		-0.00007703	
O		4.13912102		0.72872070		6.02179229		 0.00015265		 0.00015265		 0.00007702	
O		5.28007881		8.69047913		2.09820836		-0.00015265		-0.00015265		-0.00007702	
O		1.03169509		6.03270540		4.12820790		-0.00020769		 0.00020766		 0.00016168	
O		8.38750474		3.38649525		3.99179192		 0.00020769		-0.00020766		-0.00016168	
O		6.68230499		5.09169417		0.06820799		 0.00020766		-0.00020762		 0.00016171	
O		2.73689483		4.32750483		8.05179183		-0.00020766		 0.00020762		-0.00016171	
O		8.69047913		5.28007881		2.09820836		-0.00015265		-0.00015265		-0.00007702	
O		0.72872070		4.13912102		6.02179229		 0.00015265		 0.00015265		 0.00007702	
O		4.32750483		2.73689483		8.05179183		 0.00020762		-0.00020766		-0.00016171	
O		5.09169417		6.68230499		0.06820799		-0.00020762		 0.00020766		 0.00016171	
O		3.38649525		8.38750474		3.99179192		-0.00020766		 0.00020769		-0.00016168	
O		6.03270540		1.03169509		4.12820790		 0.00020766		-0.00020769		 0.00016168	
O		2.92527865		6.33567897		6.02179229		-0.00015268		-0.00015268		 0.00007703	
O		6.49392118		3.08352086		2.09820836		 0.00015268		 0.00015268		-0.00007703	
O		4.78872143		4.78872143		1.96179238		 0.00015267		 0.00015267		 0.00007703	
O		4.63047922		4.63047922		6.15820827		-0.00015267		-0.00015267		-0.00007703	
O		0.38209467		1.97270467		0.06820799		-0.00020763		 0.00020765		 0.00016171	
O		9.03710516		7.44649434		8.05179183		 0.00020763		-0.00020765		-0.00016171	
O		9.34007872		9.34007872		6.15820827		-0.00015267		-0.00015267		-0.00007703	
O		0.07912110		0.07912110		1.96179238		 0.00015267		 0.00015267		 0.00007703	
O		4.97710524		6.79689392		3.99179192		 0.00020768		-0.00020765		-0.00016168	
O		4.44209376		2.62230508		4.12820790		-0.00020768		 0.00020765		 0.00016168	
O		6.33567897		2.92527865		6.02179229		-0.00015268		-0.00015268		 0.00007703	
O		3.08352086		6.49392118		2.09820836		 0.00015268		 0.00015268		-0.00007703	
O		2.62230508		4.44209376		4.12820790		 0.00020765		-0.00020768		 0.00016168	
O		6.79689392		4.97710524		3.99179192		-0.00020765		 0.00020768		-0.00016168	
O		7.44649434		9.03710516		8.05179183		-0.00020765		 0.00020763		-0.00016171	
O		1.97270467		0.38209467		0.06820799		 0.00020765		-0.00020763		 0.00016171	
O		6.98527938		6.98527938		1.96179238		-0.00015264		-0.00015264		 0.00007703	
O		2.43392127		2.43392127		6.15820827		 0.00015264		 0.00015264		-0.00007703	
