# total energy = -49415.6321736 eV

CRYSTAL
PRIMVEC
		18.23299940		0.00000000		0.00000000
		0.00000000		8.81910125		-1.41105182
		0.00000000		-0.82883569		5.18019569
PRIMECORD
   80 1
Mg		6.86107767		5.05055542		3.56463525		-0.00015905		 0.00008709		 0.00002214
Mg		11.37192172		2.93971196		0.20450861		 0.00015905		-0.00008709		-0.00002214
Mg		2.25542203		2.74692534		1.40942362		-0.00043742		-0.00008726		-0.00015029
Mg		15.97757737		5.24334204		2.35972025		 0.00043742		 0.00008726		 0.00015029
Mg		11.37192172		0.83379324		3.06524981		-0.00043742		 0.00008726		 0.00015029
Mg		6.86107767		7.15647597		0.70389588		 0.00043742		-0.00008726		-0.00015029
Mg		15.97757737		7.34926259		-0.50101912		-0.00015905		-0.00008709		-0.00002214
Mg		2.25542203		0.64100662		4.27016299		 0.00015905		 0.00008709		 0.00002214
Mg		6.87201747		3.99919874		1.17170724		 0.00013119		-0.00013367		-0.00020850
Mg		11.36098192		3.99107047		2.59743663		-0.00013119		 0.00013367		 0.00020850
Mg		2.24448223		3.81055101		3.72568369		-0.00030838		-0.00007920		-0.00061625
Mg		15.98851717		4.17971637		0.04346018		 0.00030838		 0.00007920		 0.00061625
Mg		11.36098192		8.58926699		-0.66206756		-0.00030838		 0.00007920		 0.00061625
Mg		6.87201747		-0.59899961		4.43121143		 0.00030838		-0.00007920		-0.00061625
Mg		15.98851717		-0.41848016		3.30296436		 0.00013119		 0.00013367		 0.00020850
Mg		2.24448223		8.40874754		0.46617951		-0.00013119		-0.00013367		-0.00020850
Si		4.95025934		2.97242926		-0.22018170		 0.00045933		 0.00071103		-0.00015780
Si		13.28274006		5.01783813		3.98932557		-0.00045933		-0.00071103		 0.00015780
Si		4.16624036		5.34837688		1.92346110		-0.00013750		 0.00012856		 0.00014488
Si		14.06675903		2.64189050		1.84568277		 0.00013750		-0.00012856		-0.00014488
Si		13.28274006		7.05144113		1.14015503		-0.00013750		-0.00012856		-0.00014488
Si		4.95025934		0.93882626		2.62898883		 0.00013750		 0.00012856		 0.00014488
Si		14.06675903		0.60828933		4.69485330		 0.00045933		-0.00071103		 0.00015780
Si		4.16624036		7.38197988		-0.92570944		-0.00045933		 0.00071103		-0.00015780
Si		8.63514851		2.31407394		3.65822706		-0.00016175		 0.00028901		-0.00003910
Si		9.59785088		5.67619527		0.11091681		 0.00016175		-0.00028901		 0.00003910
Si		0.48135118		5.59646054		0.60925203		 0.00006264		-0.00037475		 0.00013967
Si		17.75164821		2.39380684		3.15989184		-0.00006264		 0.00037475		-0.00013967
Si		9.59785088		6.80335747		2.45436411		 0.00006264		 0.00037475		-0.00013967
Si		8.63514851		1.18691174		1.31477976		-0.00006264		-0.00037475		 0.00013967
Si		17.75164821		1.26664464		0.81644454		-0.00016175		-0.00028901		 0.00003910
Si		0.48135118		6.72362274		2.95269933		 0.00016175		 0.00028901		-0.00003910
O		3.34575539		2.97648610		-0.30462054		 0.00040563		 0.00020611		 0.00012939
O		14.88724401		5.01378128		4.07376441		-0.00040563		-0.00020611		-0.00012939
O		5.77074431		5.37183546		1.83591718		-0.00007166		-0.00010474		 0.00082480
O		12.46225509		2.61843193		1.93322669		 0.00007166		 0.00010474		-0.00082480
O		14.88724401		7.02798255		1.22769713		-0.00007166		 0.00010474		-0.00082480
O		3.34575539		0.96228666		2.54144673		 0.00007166		-0.00010474		 0.00082480
O		12.46225509		0.60423066		4.77929215		 0.00040563		-0.00020611		-0.00012939
O		5.77074431		7.38603854		-1.01014828		-0.00040563		 0.00020611		 0.00012939
O		5.67775601		4.39948601		-0.48687031		 0.00060578		 0.00087000		 0.00026957
O		12.55524338		3.59078320		4.25601600		-0.00060578		-0.00087000		-0.00026957
O		3.43874369		3.93391913		2.11141233		 0.00021836		-0.00007017		 0.00005113
O		14.79425571		4.05634825		1.65773154		-0.00021836		 0.00007017		-0.00005113
O		12.55524338		-0.35320055		2.36325928		 0.00021836		 0.00007017		-0.00005113
O		5.67775601		8.34346793		1.40588459		-0.00021836		-0.00007017		 0.00005113
O		14.79425571		8.00033200		3.55048827		 0.00060578		-0.00087000		-0.00026957
O		3.43874369		-0.01006462		0.21865742		-0.00060578		 0.00087000		 0.00026957
O		5.51548232		1.27177906		3.99610824		 0.00040773		 0.00002307		 0.00020725
O		12.71751708		6.71848832		-0.22696438		-0.00040773		-0.00002307		-0.00020725
O		3.60101738		6.58255949		0.62258947		 0.00048685		 0.00062005		 0.00028860
O		14.63198202		1.40770789		3.14655440		-0.00048685		-0.00062005		-0.00028860
O		12.71751708		5.81725851		2.44102667		 0.00048685		-0.00062005		-0.00028860
O		5.51548232		2.17301069		1.32811720		-0.00048685		 0.00062005		 0.00028860
O		14.63198202		2.30893770		0.47856336		 0.00040773		-0.00002307		-0.00020725
O		3.60101738		5.68132968		3.29058051		-0.00040773		 0.00002307		 0.00020725
O		10.25059226		2.34943319		3.65206431		 0.00003308		-0.00046455		 0.00026563
O		7.98240714		5.64083419		0.11707956		-0.00003308		 0.00046455		-0.00026563
O		17.09890683		5.56126720		0.61437732		 0.00005812		 0.00021216		-0.00006374
O		1.13409256		2.42900018		3.15476654		-0.00005812		-0.00021216		 0.00006374
O		7.98240714		6.83855080		2.44923881		 0.00005812		-0.00021216		 0.00006374
O		10.25059226		1.15171658		1.31990506		-0.00005812		 0.00021216		-0.00006374
O		1.13409256		1.23128539		0.82260729		 0.00003308		 0.00046455		-0.00026563
O		17.09890683		6.75898199		2.94653657		-0.00003308		-0.00046455		 0.00026563
O		7.88394894		3.69302292		2.89195062		-0.00038099		-0.00020239		-0.00049407
O		10.34905046		4.29724446		0.87719325		 0.00038099		 0.00020239		 0.00049407
O		1.23255076		4.39670547		0.25556831		 0.00005333		-0.00024128		-0.00002990
O		17.00044864		3.59356373		3.51357556		-0.00005333		 0.00024128		 0.00002990
O		10.34905046		8.00311253		2.80804600		 0.00005333		 0.00024128		 0.00002990
O		7.88394894		-0.01284515		0.96109786		-0.00005333		-0.00024128		-0.00002990
O		17.00044864		-0.11230434		1.58272098		-0.00038099		 0.00020239		 0.00049407
O		1.23255076		8.10257354		2.18642289		 0.00038099		-0.00020239		-0.00049407
O		8.17385363		1.22082147		2.84836464		 0.00022144		-0.00061711		 0.00054071
O		10.05914577		6.76944591		0.92078106		-0.00022144		 0.00061711		-0.00054071
O		0.94264607		7.01312448		-0.60219768		-0.00021160		 0.00005989		 0.00005890
O		17.29035333		0.97714473		4.37134337		 0.00021160		-0.00005989		-0.00005890
O		10.05914577		5.38669353		3.66581381		-0.00021160		-0.00005989		-0.00005890
O		8.17385363		2.60357386		0.10333005		 0.00021160		 0.00005989		 0.00005890
O		17.29035333		2.35989711		1.62630879		 0.00022144		 0.00061711		-0.00054071
O		0.94264607		5.63037027		2.14283508		-0.00022144		-0.00061711		 0.00054071
