# total energy = -49415.6321736 eV

CRYSTAL
PRIMVEC
		18.23299940		0.00000000		0.00000000
		0.00000000		8.81910125		1.41105182
		0.00000000		0.82883569		5.18019569
PRIMECORD
   80 1
Mg		6.86107767		6.48659010		5.41057876		 0.00043743		 0.00008726		-0.00015030
Mg		11.37192172		3.16134136		1.18067605		-0.00043743		-0.00008726		 0.00015030
Mg		2.25542203		3.35412798		2.38559105		 0.00015907		-0.00008710		 0.00002217
Mg		15.97757737		6.29380348		4.20566558		-0.00015907		 0.00008710		-0.00002217
Mg		11.37192172		1.88425468		3.50013602		 0.00015907		 0.00008710		-0.00002217
Mg		6.86107767		7.76367861		3.09112061		-0.00015907		-0.00008710		 0.00002217
Mg		15.97757737		7.57089199		1.88620561		 0.00043743		-0.00008726		 0.00015030
Mg		2.25542203		2.07704130		4.70505102		-0.00043743		 0.00008726		-0.00015030
Mg		6.87201747		4.59413239		2.54663949		 0.00030839		 0.00007921		-0.00061623
Mg		11.36098192		5.05379907		4.04461532		-0.00030839		-0.00007921		 0.00061623
Mg		2.24448223		5.23431853		5.17286238		-0.00013121		 0.00013369		-0.00020850
Mg		15.98851717		4.41361476		1.41839243		 0.00013121		-0.00013369		 0.00020850
Mg		11.36098192		8.82316356		2.12392016		-0.00013121		-0.00013369		 0.00020850
Mg		6.87201747		0.82476790		4.46733464		 0.00013121		 0.00013369		-0.00020850
Mg		15.98851717		0.64424845		3.33908758		 0.00030839		-0.00007921		 0.00061623
Mg		2.24448223		9.00368301		3.25216723		-0.00030839		 0.00007921		-0.00061623
Si		4.95025934		3.05630652		0.74441690		 0.00013754		-0.00012853		 0.00014487
Si		13.28274006		6.59162494		5.84683791		-0.00013754		 0.00012853		-0.00014487
Si		4.16624036		6.26108619		3.78097526		-0.00045931		-0.00071101		-0.00015780
Si		14.06675903		3.38684528		2.81028137		 0.00045931		 0.00071101		 0.00015780
Si		13.28274006		7.79639590		3.51580910		-0.00045931		 0.00071101		 0.00015780
Si		4.95025934		1.85153739		3.07544753		 0.00045931		-0.00071101		-0.00015780
Si		14.06675903		2.18207432		5.14131017		 0.00013754		 0.00012853		-0.00014487
Si		4.16624036		7.46585715		1.44994463		-0.00013754		-0.00012853		 0.00014487
Si		8.63514851		3.63705490		4.61040717		-0.00006261		 0.00037476		 0.00013968
Si		9.59785088		6.01087656		1.98084764		 0.00006261		-0.00037476		-0.00013968
Si		0.48135118		6.09061129		2.47918286		 0.00016177		-0.00028909		-0.00003914
Si		17.75164821		3.55732200		4.11207377		-0.00016177		 0.00028909		 0.00003914
Si		9.59785088		7.96687080		4.81760150		 0.00016177		 0.00028909		 0.00003914
Si		8.63514851		1.68106066		1.77365513		-0.00016177		-0.00028909		-0.00003914
Si		17.75164821		1.60132776		1.27531991		-0.00006261		-0.00037476		-0.00013968
Si		0.48135118		8.04660553		5.31593673		 0.00006261		 0.00037476		 0.00013968
O		3.34575539		3.03284795		0.65687480		 0.00007165		 0.00010474		 0.00082483
O		14.88724401		6.61508351		5.93438366		-0.00007165		-0.00010474		-0.00082483
O		5.77074431		6.25702934		3.69653642		-0.00040565		-0.00020609		 0.00012941
O		12.46225509		3.39090212		2.89472021		 0.00040565		 0.00020609		-0.00012941
O		14.88724401		7.80045456		3.60024795		-0.00040565		 0.00020609		-0.00012941
O		3.34575539		1.84747872		2.99100868		 0.00040565		-0.00020609		 0.00012941
O		12.46225509		2.20553472		5.22885410		 0.00007165		-0.00010474		-0.00082483
O		5.77074431		7.44239857		1.36240253		-0.00007165		 0.00010474		 0.00082483
O		5.67775601		4.47076427		0.93236813		-0.00021838		 0.00007012		 0.00005111
O		12.55524338		5.17716719		5.65888850		 0.00021838		-0.00007012		-0.00005111
O		3.43874369		4.83403126		3.51428483		-0.00060580		-0.00087004		 0.00026955
O		14.79425571		4.81390203		3.07697181		 0.00060580		 0.00087004		-0.00026955
O		12.55524338		0.40435140		2.37144225		-0.00060580		 0.00087004		-0.00026955
O		5.67775601		9.24358006		4.21981256		 0.00060580		-0.00087004		 0.00026955
O		14.79425571		9.58671599		6.36441624		-0.00021838		-0.00007012		-0.00005111
O		3.43874369		0.06121547		0.22684039		 0.00021838		 0.00007012		 0.00005111
O		5.51548232		2.65095595		4.62374461		-0.00048681		-0.00062006		 0.00028860
O		12.71751708		6.99697551		1.96751020		 0.00048681		 0.00062006		-0.00028860
O		3.60101738		7.13290434		2.81706405		-0.00040772		-0.00002307		 0.00020721
O		14.63198202		2.51502712		3.77419259		 0.00040772		 0.00002307		-0.00020721
O		12.71751708		6.92457774		4.47972032		-0.00040772		 0.00002307		-0.00020721
O		5.51548232		2.72335372		2.11153631		 0.00040772		-0.00002307		 0.00020721
O		14.63198202		2.58742671		1.26198247		-0.00048681		 0.00062006		-0.00028860
O		3.60101738		7.06050657		5.32927234		 0.00048681		-0.00062006		 0.00028860
O		10.25059226		3.67224824		4.61553429		-0.00005813		-0.00021215		-0.00006375
O		7.98240714		5.97568322		1.97572234		 0.00005813		 0.00021215		 0.00006375
O		17.09890683		6.05525021		2.47302011		-0.00003311		 0.00046457		 0.00026568
O		1.13409256		3.59268125		4.11823470		 0.00003311		-0.00046457		-0.00026568
O		7.98240714		8.00223005		4.82376243		-0.00003311		-0.00046457		-0.00026568
O		10.25059226		1.64570141		1.76749238		 0.00003311		 0.00046457		 0.00026568
O		1.13409256		1.56613260		1.27019461		-0.00005813		 0.00021215		 0.00006375
O		17.09890683		8.08179886		5.32106202		 0.00005813		-0.00021215		-0.00006375
O		7.88394894		4.83680997		4.25672527		-0.00005333		 0.00024127		-0.00002990
O		10.34905046		4.81112149		2.33453136		 0.00005333		-0.00024127		 0.00002990
O		1.23255076		4.71166048		1.71290642		 0.00038096		 0.00020245		-0.00049399
O		17.00044864		4.93627098		4.87834839		-0.00038096		-0.00020245		 0.00049399
O		10.34905046		9.34582160		5.58387612		 0.00038096		-0.00020245		 0.00049399
O		7.88394894		0.30211168		1.00737869		-0.00038096		 0.00020245		-0.00049399
O		17.00044864		0.40157087		1.62900363		-0.00005333		-0.00024127		 0.00002990
O		1.23255076		9.24636059		4.96225300		 0.00005333		 0.00024127		-0.00002990
O		8.17385363		2.22039279		3.39895746		 0.00021160		-0.00005988		 0.00005889
O		10.05914577		7.42754050		3.19229917		-0.00021160		 0.00005988		-0.00005889
O		0.94264607		7.18386193		1.66932044		-0.00022145		 0.00061711		 0.00054071
O		17.29035333		2.46406953		4.92193619		 0.00022145		-0.00061711		-0.00054071
O		10.05914577		6.87361833		5.62746393		-0.00022145		-0.00061711		-0.00054071
O		8.17385363		2.77431313		0.96379270		 0.00022145		 0.00061711		 0.00054071
O		17.29035333		3.01798988		2.48676961		 0.00021160		 0.00005988		-0.00005889
O		0.94264607		6.62994159		4.10448519		-0.00021160		-0.00005988		 0.00005889
