# total energy = -49422.3964505 eV

CRYSTAL
PRIMVEC
		18.23299940		0.00000000		0.00000000
		0.00000000		8.81910125		-1.05829798
		0.00000000		-0.62161765		5.18019569
PRIMECORD
   80 1
Mg		6.86107767		5.23006112		3.79537751		-0.00017831		 0.00033035		 0.00030939
Mg		11.37192172		2.96741518		0.32652932		 0.00017831		-0.00033035		-0.00030939
Mg		2.25542203		2.82282567		1.53144432		-0.00016952		 0.00024589		-0.00016273
Mg		15.97757737		5.37465063		2.59046433		 0.00016952		-0.00024589		 0.00016273
Mg		11.37192172		0.96510001		3.11960967		-0.00016952		-0.00024589		 0.00016273
Mg		6.86107767		7.23237630		1.00229715		 0.00016952		 0.00024589		-0.00016273
Mg		15.97757737		7.37696580		-0.20261603		-0.00017831		-0.00033035		-0.00030939
Mg		2.25542203		0.82051050		4.32452468		 0.00017831		 0.00033035		 0.00030939
Mg		6.87201747		4.07356567		1.34357332		-0.00029263		 0.00043890		 0.00032437
Mg		11.36098192		4.12391063		2.77833351		 0.00029263		-0.00043890		-0.00032437
Mg		2.24448223		3.98852149		3.90658239		 0.00027746		-0.00005271		 0.00042145
Mg		15.98851717		4.20895299		0.21532625		-0.00027746		 0.00005271		-0.00042145
Mg		11.36098192		8.61850543		-0.31381909		 0.00027746		 0.00005271		-0.00042145
Mg		6.87201747		-0.42102731		4.43572774		-0.00027746		-0.00005271		 0.00042145
Mg		15.98851717		-0.28563817		3.30748068		-0.00029263		-0.00043890		-0.00032437
Mg		2.24448223		8.48311447		0.81442797		 0.00029263		 0.00043890		 0.00032437
Si		4.95025934		2.98291323		-0.09960688		-0.00007311		-0.00020119		 0.00034080
Si		13.28274006		5.21456125		4.22151370		 0.00007311		 0.00020119		-0.00034080
Si		4.16624036		5.46246623		2.15564923		 0.00034235		 0.00008369		 0.00015148
Si		14.06675903		2.73501008		1.96625759		-0.00034235		-0.00008369		-0.00015148
Si		13.28274006		7.14456070		1.43711225		 0.00034235		-0.00008369		-0.00015148
Si		4.95025934		1.05291560		2.68479640		-0.00034235		 0.00008369		 0.00015148
Si		14.06675903		0.80501245		4.75065905		-0.00007311		 0.00020119		-0.00034080
Si		4.16624036		7.39246385		-0.62875222		 0.00007311		-0.00020119		 0.00034080
Si		8.63514851		2.47944542		3.77725026		 0.00004010		 0.00002941		 0.00010423
Si		9.59785088		5.71802906		0.34465839		-0.00004010		-0.00002941		-0.00010423
Si		0.48135118		5.65823029		0.84299361		 0.00026678		 0.00049015		-0.00011326
Si		17.75164821		2.53924601		3.27891504		-0.00026678		-0.00049015		 0.00011326
Si		9.59785088		6.94879663		2.74976969		 0.00026678		-0.00049015		 0.00011326
Si		8.63514851		1.24867967		1.37213896		-0.00026678		 0.00049015		-0.00011326
Si		17.75164821		1.30848026		0.87380373		 0.00004010		-0.00002941		-0.00010423
Si		0.48135118		6.88899604		3.24810309		-0.00004010		 0.00002941		 0.00010423
O		3.34575539		2.98353133		-0.18443226		 0.00026010		 0.00055893		-0.00013591
O		14.88724401		5.21394315		4.30634091		-0.00026010		-0.00055893		 0.00013591
O		5.77074431		5.48248424		2.06849549		 0.00029638		 0.00010016		-0.00042256
O		12.46225509		2.71499025		2.05341316		-0.00029638		-0.00010016		 0.00042256
O		14.88724401		7.12454087		1.52426781		 0.00029638		-0.00010016		 0.00042256
O		3.34575539		1.07293544		2.59764084		-0.00029638		 0.00010016		-0.00042256
O		12.46225509		0.80439435		4.83548625		 0.00026010		-0.00055893		 0.00013591
O		5.77074431		7.39308195		-0.71357943		-0.00026010		 0.00055893		-0.00013591
O		5.67775601		4.40839647		-0.30946688		 0.00028470		-0.00042612		 0.00036085
O		12.55524338		3.78908165		4.43137552		-0.00028470		 0.00042612		-0.00036085
O		3.43874369		4.04643315		2.28677184		 0.00035106		 0.00019772		 0.00011007
O		14.79425571		4.15104316		1.83513680		-0.00035106		-0.00019772		-0.00011007
O		12.55524338		-0.25850747		2.36428215		 0.00035106		-0.00019772		-0.00011007
O		5.67775601		8.45598195		1.75762650		-0.00035106		 0.00019772		 0.00011007
O		14.79425571		8.19863045		3.90222835		 0.00028470		 0.00042612		-0.00036085
O		3.43874369		-0.00115415		0.21968029		-0.00028470		-0.00042612		 0.00036085
O		5.51548232		1.44417754		4.07456119		 0.00031855		 0.00066479		-0.00055595
O		12.71751708		6.75330059		0.04734563		-0.00031855		-0.00066479		 0.00055595
O		3.60101738		6.65135260		0.89689947		 0.00045210		 0.00007135		 0.00026810
O		14.63198202		1.54612371		3.22500917		-0.00045210		-0.00007135		-0.00026810
O		12.71751708		5.95567251		2.69586201		 0.00045210		-0.00007135		-0.00026810
O		5.51548232		2.24180380		1.42604482		-0.00045210		 0.00007135		 0.00026810
O		14.63198202		2.34374814		0.57649280		 0.00031855		-0.00066479		 0.00055595
O		3.60101738		5.85372634		3.54541585		-0.00031855		 0.00066479		-0.00055595
O		10.25059226		2.51478462		3.77249874		-0.00003571		 0.00033456		-0.00043957
O		7.98240714		5.68269169		0.34940808		 0.00003571		-0.00033456		 0.00043957
O		17.09890683		5.62301508		0.84670767		 0.00041552		-0.00042724		-0.00014860
O		1.13409256		2.57446123		3.27519915		-0.00041552		 0.00042724		 0.00014860
O		7.98240714		6.98401002		2.74605381		 0.00041552		 0.00042724		 0.00014860
O		10.25059226		1.21346446		1.37585484		-0.00041552		-0.00042724		-0.00014860
O		1.13409256		1.27314106		0.87855525		-0.00003571		-0.00033456		 0.00043957
O		17.09890683		6.92433524		3.24335339		 0.00003571		 0.00033456		-0.00043957
O		7.88394894		3.83599516		3.06254768		 0.00023713		 0.00006249		 0.00076387
O		10.34905046		4.36147932		1.05935914		-0.00023713		-0.00006249		-0.00076387
O		1.23255076		4.43607417		0.43773603		 0.00040578		-0.00003265		 0.00030185
O		17.00044864		3.76140031		3.68417262		-0.00040578		 0.00003265		-0.00030185
O		10.34905046		8.17095094		3.15502545		 0.00040578		 0.00003265		-0.00030185
O		7.88394894		0.02652537		0.96688137		-0.00040578		-0.00003265		 0.00030185
O		17.00044864		-0.04806948		1.58850631		 0.00023713		-0.00006249		-0.00076387
O		1.23255076		8.24554761		2.53340233		-0.00023713		 0.00006249		 0.00076387
O		8.17385363		1.34576675		2.91718874		 0.00004438		-0.00017799		-0.00038798
O		10.05914577		6.85170956		1.20471991		-0.00004438		 0.00017799		 0.00038798
O		0.94264607		7.03446620		-0.31825883		-0.00054101		 0.00047399		 0.00050769
O		17.29035333		1.16301010		4.44016748		 0.00054101		-0.00047399		-0.00050769
O		10.05914577		5.57256072		3.91102031		-0.00054101		-0.00047399		-0.00050769
O		8.17385363		2.62491558		0.21088652		 0.00054101		 0.00047399		 0.00050769
O		17.29035333		2.44215894		1.73386525		 0.00004438		 0.00017799		 0.00038798
O		0.94264607		5.75531737		2.38804157		-0.00004438		-0.00017799		-0.00038798
