# total energy = -14247.5539569 eV	

CRYSTAL	
PRIMVEC	
		7.73000250		0.00000000		1.23680384	
		0.00000000		7.73000250		0.00000000	
		0.80159631		0.00000000		5.00999849	
PRIMCOORD
   24 1	
Ca		2.95971573		1.31409988		2.96324395		 0.00027789		 0.00075645		 0.00004371	
Ca		5.58791548		6.41589949		3.38375616		 0.00054655		-0.00022513		-0.00017922	
Ca		1.70688418		5.17909956		2.66515568		-0.00027789		 0.00075645		-0.00004371	
Ca		6.80868380		2.55089981		3.48144418		-0.00054655		-0.00022513		 0.00017922	
Si		1.84372006		2.78279965		4.93265157		 0.00058760		-0.00008120		 0.00005989	
Si		7.40931935		4.94719972		5.82314784		 0.00069587		-0.00003560		 0.00062752	
Si		2.82287985		6.64779933		0.69574806		-0.00058760		-0.00008120		-0.00005989	
Si		4.98727993		1.08220004		1.04205172		-0.00069587		-0.00003560		-0.00062752	
Mg		0.00000000		0.00000000		0.00000000		 0.00039253		-0.00022705		 0.00041582	
Mg		3.86499968		3.86499968		0.61840036		-0.00039253		-0.00022705		-0.00041582	
O		4.01730353		0.00000000		1.57029960		 0.00032303		-0.00085320		-0.00053914	
O		0.64929560		3.86499968		4.05810003		-0.00032303		-0.00085320		 0.00053914	
O		1.29061570		2.78279965		1.47575230		-0.00001755		 0.00082128		 0.00020941	
O		6.85621578		4.94719972		2.36624778		-0.00042493		-0.00074850		 0.00021171	
O		3.37598421		6.64779933		4.15264811		 0.00001755		 0.00082128		-0.00020941	
O		5.54038350		1.08220004		4.49895178		 0.00042493		-0.00074850		-0.00021171	
O		1.26769595		1.39139982		4.15704371		-0.00013492		 0.00012727		-0.00082819	
O		7.76089539		6.33859954		5.19595550		-0.00006970		 0.00017002		-0.00023502	
O		1.54370367		7.11159979		1.17452409		-0.00018516		 0.00042076		-0.00051063	
O		6.49090339		0.61840036		1.96607589		-0.00050089		-0.00012508		-0.00071055	
O		3.39890396		5.25639951		1.47135592		 0.00013492		 0.00012727		 0.00082819	
O		4.63570389		2.47359986		1.66924406		 0.00006970		 0.00017002		 0.00023502	
O		3.12289546		3.24660011		4.45387554		 0.00018516		 0.00042076		 0.00051063	
O		5.90569589		4.48340004		4.89912367		 0.00050089		-0.00012508		 0.00071055	
