# total energy = -14250.1657322 eV	

CRYSTAL	
PRIMVEC	
		7.72999998		0.00000000		0.30919969	
		0.00000000		7.72999998		0.00000000	
		0.20039804		0.00000000		5.00999736	
PRIMCOORD
   24 1	
Ca		2.65310400		1.31410023		2.65713610		 0.00002552		 0.00028859		 0.00047196	
Ca		5.28130368		6.41589975		2.76226384		-0.00050928		 0.00032943		-0.00050854	
Ca		1.41229558		5.17909945		2.50746420		-0.00002552		 0.00028859		-0.00047196	
Ca		6.51409587		2.55089976		2.71153615		 0.00050928		 0.00032943		 0.00050854	
Si		1.27258014		2.78279953		4.80278761		-0.00004453		-0.00040750		-0.00016957	
Si		6.83817998		4.94719968		5.02541170		 0.00009997		-0.00031318		-0.00024994	
Si		2.79282020		6.64779952		0.36181191		 0.00004453		-0.00040750		 0.00016957	
Si		4.95721958		1.08219969		0.44838829		-0.00009997		-0.00031318		 0.00024994	
Mg		0.00000000		0.00000000		0.00000000		 0.00029662		 0.00046708		 0.00002420	
Mg		3.86499999		3.86499999		0.15459984		-0.00029662		 0.00046708		-0.00002420	
O		3.90307593		0.00000000		1.10649981		-0.00016827		-0.00042802		 0.00013232	
O		0.16232365		3.86499999		4.05809971		 0.00016827		-0.00042802		-0.00013232	
O		1.13430364		2.78279953		1.34588820		-0.00004105		 0.00001589		 0.00005569	
O		6.69990347		4.94719968		1.56851228		 0.00057425		-0.00024677		-0.00035011	
O		2.93109593		6.64779952		3.81871210		 0.00004105		 0.00001589		-0.00005569	
O		5.09549608		1.08219969		3.90528770		-0.00057425		-0.00024677		 0.00035011	
O		0.78072380		1.39140015		4.08283615		 0.00015815		-0.00018503		-0.00031655	
O		7.27392348		6.33859983		4.34256374		-0.00016901		-0.00005240		 0.00000793	
O		1.42947609		7.11159983		1.00755560		 0.00050303		 0.00038226		 0.00033896	
O		6.37667577		0.61840015		1.20544402		 0.00041122		 0.00014967		-0.00055306	
O		3.28467577		5.25640014		1.08176414		-0.00015815		-0.00018503		 0.00031655	
O		4.52147608		2.47359984		1.13123625		 0.00016901		-0.00005240		-0.00000793	
O		2.63592426		3.24659984		4.15704392		-0.00050303		 0.00038226		-0.00033896	
O		5.41872379		4.48340014		4.26835597		-0.00041122		 0.00014967		 0.00055306	
