# total energy = -14250.1657321 eV	

CRYSTAL	
PRIMVEC	
		7.72999998		0.00000000		-0.30919969	
		0.00000000		7.72999998		0.00000000	
		-0.20039804		0.00000000		5.00999736	
PRIMCOORD
   24 1	
Ca		2.44869552		1.31410023		2.45306415		 0.00050922		-0.00032963		-0.00050921	
Ca		5.07689598		6.41589975		2.34793563		-0.00002601		-0.00028850		 0.00047177	
Ca		1.21590411		5.17909945		2.40233569		-0.00050922		-0.00032963		 0.00050921	
Ca		6.31770363		2.55089976		2.19826374		 0.00002601		-0.00028850		-0.00047177	
Si		0.89182000		2.78279953		4.71621201		-0.00009976		 0.00031337		-0.00024232	
Si		6.45741984		4.94719968		4.49358792		 0.00004503		 0.00040943		-0.00017541	
Si		2.77277963		6.64779952		0.13918782		 0.00009976		 0.00031337		 0.00024232	
Si		4.93717978		1.08219969		0.05261222		-0.00004503		 0.00040943		 0.00017541	
Mg		0.00000000		0.00000000		0.00000000		-0.00029524		-0.00046842		 0.00002442	
Mg		3.86499999		3.86499999		-0.15459984		 0.00029524		-0.00046842		-0.00002442	
O		3.82692405		0.00000000		0.79730012		 0.00017083		 0.00042918		 0.00013355	
O		-0.16232365		3.86499999		4.05809971		-0.00017083		 0.00042918		-0.00013355	
O		1.03009573		2.78279953		1.25931182		-0.00057468		 0.00024675		-0.00035499	
O		6.59569557		4.94719968		1.03668773		 0.00004044		-0.00001613		 0.00006077	
O		2.63450390		6.64779952		3.59608801		 0.00057468		 0.00024675		 0.00035499	
O		4.79890405		1.08219969		3.50951163		-0.00004044		-0.00001613		-0.00006077	
O		0.45607573		1.39140015		4.03336405		 0.00016902		 0.00005236		 0.00000662	
O		6.94927541		6.33859983		3.77363569		-0.00015899		 0.00018279		-0.00031579	
O		1.35332421		7.11159983		0.89624433		-0.00041315		-0.00014973		-0.00055222	
O		6.30052389		0.61840015		0.69835591		-0.00050588		-0.00038147		 0.00033923	
O		3.20852390		5.25640014		0.82203578		-0.00016902		 0.00005236		-0.00000662	
O		4.44532343		2.47359984		0.77256368		 0.00015899		 0.00018279		 0.00031579	
O		2.31127619		3.24659984		3.95915550		 0.00041315		-0.00014973		 0.00055222	
O		5.09407572		4.48340014		3.84784346		 0.00050588		-0.00038147		-0.00033923	
