# total energy = -49447.212736 eV	

CRYSTAL	
PRIMVEC	
		5.08939982		0.00000000		0.00000000	
		0.00000000		14.66639829		0.00000000	
		0.00000000		0.00000000		8.69560094	
PRIMCOORD
   70 1	
Si		2.54469991		0.00000000		0.00000000		0.00000000		0.00000000		0.00000000	
Si		0.00000000		7.33319966		4.34779996		0.00000000		0.00000000		0.00000000	
Si		2.47349870		5.52219271		0.00000000		-0.00004852		 0.00038918		0.00000000	
Si		2.61590112		9.14420660		0.00000000		 0.00004852		-0.00038918		0.00000000	
Si		0.07120121		12.85539339		4.34779996		 0.00004852		 0.00038918		-0.00000000	
Si		5.01819861		1.81100694		4.34779996		-0.00004852		-0.00038918		-0.00000000	
Mg		0.86219522		2.54476709		0.00000000		-0.00024546		-0.00011294		-0.00000000	
Mg		4.22720460		12.12163273		0.00000000		 0.00024546		 0.00011294		-0.00000000	
Mg		1.68250469		9.87796776		4.34779996		 0.00024546		-0.00011294		0.00000000	
Mg		3.40689513		4.78843307		4.34779996		-0.00024546		 0.00011294		0.00000000	
Mg		0.80570289		4.74399396		2.81563513		-0.00061767		-0.00045665		 0.00023964	
Mg		4.28369694		9.92240688		5.87996480		 0.00061767		 0.00045665		-0.00023964	
Mg		4.28369694		9.92240688		2.81563513		 0.00061767		 0.00045665		 0.00023964	
Mg		0.80570289		4.74399396		5.87996480		-0.00061767		-0.00045665		-0.00023964	
Mg		1.73899703		12.07719362		1.53216483		 0.00061767		-0.00045665		-0.00023964	
Mg		3.35040280		2.58920569		7.16343458		-0.00061767		 0.00045665		 0.00023964	
Mg		3.35040280		2.58920569		1.53216483		-0.00061767		 0.00045665		-0.00023964	
Mg		1.73899703		12.07719362		7.16343458		 0.00061767		-0.00045665		 0.00023964	
Mg		2.54469991		7.33319966		2.79363467		0.00000000		0.00000000		 0.00025986	
Mg		2.54469991		7.33319966		5.90196373		0.00000000		0.00000000		-0.00025986	
Mg		0.00000000		0.00000000		1.55416478		0.00000000		0.00000000		-0.00025986	
Mg		0.00000000		0.00000000		7.14143463		0.00000000		0.00000000		 0.00025986	
Mg		2.54469991		0.00000000		2.97293881		0.00000000		0.00000000		-0.00024607	
Mg		2.54469991		0.00000000		5.72266061		0.00000000		0.00000000		 0.00024607	
Mg		0.00000000		7.33319966		1.37486116		0.00000000		0.00000000		 0.00024607	
Mg		0.00000000		7.33319966		7.32073775		0.00000000		0.00000000		-0.00024607	
O		1.69075002		6.05986287		1.35755720		 0.00011880		-0.00015409		 0.00037565	
O		3.39864980		8.60653645		7.33804273		-0.00011880		 0.00015409		-0.00037565	
O		3.39864980		8.60653645		1.35755720		-0.00011880		 0.00015409		 0.00037565	
O		1.69075002		6.05986287		7.33804273		 0.00011880		-0.00015409		-0.00037565	
O		0.85394989		13.39306252		2.99024277		-0.00011880		-0.00015409		-0.00037565	
O		4.23544892		1.27333679		5.70535665		 0.00011880		 0.00015409		 0.00037565	
O		4.23544892		1.27333679		2.99024277		 0.00011880		 0.00015409		-0.00037565	
O		0.85394989		13.39306252		5.70535665		-0.00011880		-0.00015409		 0.00037565	
O		2.50953216		3.80197099		0.00000000		-0.00014675		 0.00053632		-0.00000000	
O		2.57986715		10.86442883		0.00000000		 0.00014675		-0.00053632		-0.00000000	
O		0.03516775		11.13517065		4.34779996		 0.00014675		 0.00053632		0.00000000	
O		5.05423207		3.53122866		4.34779996		-0.00014675		-0.00053632		0.00000000	
O		4.02780191		6.07922294		0.00000000		 0.00040153		-0.00034236		0.00000000	
O		1.06159791		8.58717688		0.00000000		-0.00040153		 0.00034236		0.00000000	
O		3.60629782		13.41242260		4.34779996		-0.00040153		-0.00034236		0.00000000	
O		1.48310200		1.25397671		4.34779996		 0.00040153		 0.00034236		0.00000000	
O		1.81386210		1.07167390		1.25773218		 0.00019070		 0.00023269		-0.00000940	
O		3.27553773		13.59472643		7.43786774		-0.00019070		-0.00023269		 0.00000940	
O		3.27553773		13.59472643		1.25773218		-0.00019070		-0.00023269		-0.00000940	
O		1.81386210		1.07167390		7.43786774		 0.00019070		 0.00023269		 0.00000940	
O		0.73083781		8.40487356		3.09006778		-0.00019070		 0.00023269		 0.00000940	
O		4.35856201		6.26152575		5.60553062		 0.00019070		-0.00023269		-0.00000940	
O		4.35856201		6.26152575		3.09006778		 0.00019070		-0.00023269		 0.00000940	
O		0.73083781		8.40487356		5.60553062		-0.00019070		 0.00023269		-0.00000940	
O		5.00058979		3.69373269		1.38433914		-0.00011803		-0.00029628		-0.00002253	
O		0.08881003		10.97266662		7.31125976		 0.00011803		 0.00029628		 0.00002253	
O		0.08881003		10.97266662		1.38433914		 0.00011803		 0.00029628		-0.00002253	
O		5.00058979		3.69373269		7.31125976		-0.00011803		-0.00029628		 0.00002253	
O		2.63350994		11.02693286		2.96345980		 0.00011803		-0.00029628		 0.00002253	
O		2.45588988		3.63946697		5.73213860		-0.00011803		 0.00029628		-0.00002253	
O		2.45588988		3.63946697		2.96345980		-0.00011803		 0.00029628		 0.00002253	
O		2.63350994		11.02693286		5.73213860		 0.00011803		-0.00029628		-0.00002253	
O		0.99589376		13.50467459		0.00000000		 0.00002940		-0.00005304		-0.00000000	
O		4.09350606		1.16172574		0.00000000		-0.00002940		 0.00005304		-0.00000000	
O		1.54880615		6.17147493		4.34779996		-0.00002940		-0.00005304		0.00000000	
O		3.54059367		8.49492591		4.34779996		 0.00002940		 0.00005304		0.00000000	
H		4.69802498		4.43805283		0.94347294		-0.00030473		 0.00007988		-0.00026927	
H		0.39137485		10.22834648		7.75212648		 0.00030473		-0.00007988		 0.00026927	
H		0.39137485		10.22834648		0.94347294		 0.00030473		-0.00007988		-0.00026927	
H		4.69802498		4.43805283		7.75212648		-0.00030473		 0.00007988		 0.00026927	
H		2.93607476		11.77125249		3.40432702		 0.00030473		 0.00007988		 0.00026927	
H		2.15332506		2.89514682		5.29127188		-0.00030473		-0.00007988		-0.00026927	
H		2.15332506		2.89514682		3.40432702		-0.00030473		-0.00007988		 0.00026927	
H		2.93607476		11.77125249		5.29127188		 0.00030473		 0.00007988		-0.00026927	
