# total energy = -49447.3272501 eV	

CRYSTAL	
PRIMVEC	
		5.08939982		0.00000000		0.00000000	
		0.00000000		13.61880132		0.00000000	
		0.00000000		0.00000000		8.69560094	
PRIMCOORD
   70 1	
Si		2.54469991		0.00000000		0.00000000		0.00000000		0.00000000		0.00000000	
Si		0.00000000		6.80939964		4.34779996		0.00000000		0.00000000		0.00000000	
Si		2.47349870		5.12775099		0.00000000		-0.00038506		 0.00014789		-0.00000000	
Si		2.61590112		8.49104880		0.00000000		 0.00038506		-0.00014789		0.00000000	
Si		0.07120121		11.93715064		4.34779996		 0.00038506		 0.00014789		0.00000000	
Si		5.01819861		1.68164916		4.34779996		-0.00038506		-0.00014789		-0.00000000	
Mg		0.86219522		2.36299816		0.00000000		-0.00015104		 0.00042615		0.00000000	
Mg		4.22720460		11.25580164		0.00000000		 0.00015104		-0.00042615		0.00000000	
Mg		1.68250469		9.17239780		4.34779996		 0.00015104		 0.00042615		-0.00000000	
Mg		3.40689513		4.44640199		4.34779996		-0.00015104		-0.00042615		-0.00000000	
Mg		0.80570289		4.40513663		2.81563513		-0.00027456		-0.00025307		 0.00024649	
Mg		4.28369694		9.21366266		5.87996480		 0.00027456		 0.00025307		-0.00024649	
Mg		4.28369694		9.21366266		2.81563513		 0.00027456		 0.00025307		 0.00024649	
Mg		0.80570289		4.40513663		5.87996480		-0.00027456		-0.00025307		-0.00024649	
Mg		1.73899703		11.21453679		1.53216483		 0.00027456		-0.00025307		-0.00024649	
Mg		3.35040280		2.40426301		7.16343458		-0.00027456		 0.00025307		 0.00024649	
Mg		3.35040280		2.40426301		1.53216483		-0.00027456		 0.00025307		-0.00024649	
Mg		1.73899703		11.21453679		7.16343458		 0.00027456		-0.00025307		 0.00024649	
Mg		2.54469991		6.80939964		2.79363467		0.00000000		0.00000000		-0.00025672	
Mg		2.54469991		6.80939964		5.90196373		0.00000000		0.00000000		 0.00025672	
Mg		0.00000000		0.00000000		1.55416478		0.00000000		0.00000000		 0.00025672	
Mg		0.00000000		0.00000000		7.14143463		0.00000000		0.00000000		-0.00025672	
Mg		2.54469991		0.00000000		2.97293881		0.00000000		0.00000000		 0.00052388	
Mg		2.54469991		0.00000000		5.72266061		0.00000000		0.00000000		-0.00052388	
Mg		0.00000000		6.80939964		1.37486116		0.00000000		0.00000000		-0.00052388	
Mg		0.00000000		6.80939964		7.32073775		0.00000000		0.00000000		 0.00052388	
O		1.69075002		5.62701603		1.35755720		-0.00044599		 0.00013763		-0.00023254	
O		3.39864980		7.99178479		7.33804273		 0.00044599		-0.00013763		 0.00023254	
O		3.39864980		7.99178479		1.35755720		 0.00044599		-0.00013763		-0.00023254	
O		1.69075002		5.62701603		7.33804273		-0.00044599		 0.00013763		 0.00023254	
O		0.85394989		12.43641567		2.99024277		 0.00044599		 0.00013763		 0.00023254	
O		4.23544892		1.18238413		5.70535665		-0.00044599		-0.00013763		-0.00023254	
O		4.23544892		1.18238413		2.99024277		-0.00044599		-0.00013763		 0.00023254	
O		0.85394989		12.43641567		5.70535665		 0.00044599		 0.00013763		-0.00023254	
O		2.50953216		3.53040113		0.00000000		 0.00038468		 0.00027905		-0.00000000	
O		2.57986715		10.08839867		0.00000000		-0.00038468		-0.00027905		0.00000000	
O		0.03516775		10.33980179		4.34779996		-0.00038468		 0.00027905		0.00000000	
O		5.05423207		3.27899903		4.34779996		 0.00038468		-0.00027905		0.00000000	
O		4.02780191		5.64499281		0.00000000		-0.00053511		-0.00019680		0.00000000	
O		1.06159791		7.97380750		0.00000000		 0.00053511		 0.00019680		0.00000000	
O		3.60629782		12.45439245		4.34779996		 0.00053511		-0.00019680		0.00000000	
O		1.48310200		1.16440684		4.34779996		-0.00053511		 0.00019680		0.00000000	
O		1.81386210		0.99512577		1.25773218		-0.00000175		-0.00009263		-0.00025069	
O		3.27553773		12.62367454		7.43786774		 0.00000175		 0.00009263		 0.00025069	
O		3.27553773		12.62367454		1.25773218		 0.00000175		 0.00009263		-0.00025069	
O		1.81386210		0.99512577		7.43786774		-0.00000175		-0.00009263		 0.00025069	
O		0.73083781		7.80452592		3.09006778		 0.00000175		-0.00009263		 0.00025069	
O		4.35856201		5.81427490		5.60553062		-0.00000175		 0.00009263		-0.00025069	
O		4.35856201		5.81427490		3.09006778		-0.00000175		 0.00009263		 0.00025069	
O		0.73083781		7.80452592		5.60553062		 0.00000175		-0.00009263		-0.00025069	
O		5.00058979		3.42989464		1.38433914		 0.00024282		-0.00028129		 0.00024878	
O		0.08881003		10.18890465		7.31125976		-0.00024282		 0.00028129		-0.00024878	
O		0.08881003		10.18890465		1.38433914		-0.00024282		 0.00028129		 0.00024878	
O		5.00058979		3.42989464		7.31125976		 0.00024282		-0.00028129		-0.00024878	
O		2.63350994		10.23929479		2.96345980		-0.00024282		-0.00028129		-0.00024878	
O		2.45588988		3.37950500		5.73213860		 0.00024282		 0.00028129		 0.00024878	
O		2.45588988		3.37950500		2.96345980		 0.00024282		 0.00028129		-0.00024878	
O		2.63350994		10.23929479		5.73213860		-0.00024282		-0.00028129		 0.00024878	
O		0.99589376		12.54005468		0.00000000		 0.00055236		 0.00088008		0.00000000	
O		4.09350606		1.07874511		0.00000000		-0.00055236		-0.00088008		0.00000000	
O		1.54880615		5.73065504		4.34779996		-0.00055236		 0.00088008		-0.00000000	
O		3.54059367		7.88814476		4.34779996		 0.00055236		-0.00088008		-0.00000000	
H		4.69802498		4.12104888		0.94347294		-0.00050146		 0.00089452		 0.00017468	
H		0.39137485		9.49775092		7.75212648		 0.00050146		-0.00089452		-0.00017468	
H		0.39137485		9.49775092		0.94347294		 0.00050146		-0.00089452		 0.00017468	
H		4.69802498		4.12104888		7.75212648		-0.00050146		 0.00089452		-0.00017468	
H		2.93607476		10.93044954		3.40432702		 0.00050146		 0.00089452		-0.00017468	
H		2.15332506		2.68835077		5.29127188		-0.00050146		-0.00089452		 0.00017468	
H		2.15332506		2.68835077		3.40432702		-0.00050146		-0.00089452		-0.00017468	
H		2.93607476		10.93044954		5.29127188		 0.00050146		 0.00089452		 0.00017468	
