# total energy = -22465.3216908 eV	

CRYSTAL	
PRIMVEC	
		9.73970004		0.00000000		0.00000000	
		0.00000000		8.91739665		0.00000000	
		-1.43536881		0.00000000		4.54525504	
PRIMCOORD
   40 1	
Mg		-0.35884269		8.09771323		1.13631425		 0.00000014		-0.00006992		-0.00000006	
Mg		-1.07652807		0.81968829		3.40894079		-0.00000014		 0.00006992		 0.00000006	
Mg		4.51100733		3.63901296		1.13631425		 0.00000018		-0.00010198		-0.00000013	
Mg		3.79332195		5.27838758		3.40894079		-0.00000018		 0.00010198		 0.00000013	
Ca		-0.35884269		2.68841824		1.13631425		-0.00000044		-0.00035621		-0.00000072	
Ca		-1.07652807		6.22898328		3.40894079		 0.00000044		 0.00035621		 0.00000072	
Ca		4.51100733		7.14711851		1.13631425		-0.00000030		-0.00031036		-0.00000065	
Ca		3.79332195		1.77028204		3.40894079		 0.00000030		 0.00031036		 0.00000065	
Si		2.45818828		0.83101264		1.04250048		 0.00015541		-0.00011619		 0.00025264	
Si		5.84614100		8.08638791		3.50275456		-0.00015541		 0.00011619		-0.00025264	
Si		6.56382638		0.83101264		1.23012801		-0.00016668		-0.00010758		-0.00025507	
Si		1.74050290		8.08638791		3.31512703		 0.00016668		 0.00010758		 0.00025507	
Si		7.32803928		5.28971291		1.04250048		 0.00083493		 0.00019103		 0.00044391	
Si		0.97629098		3.62768764		3.50275456		-0.00083493		-0.00019103		-0.00044391	
Si		1.69397636		5.28971291		1.23012801		-0.00085073		 0.00020118		-0.00044707	
Si		6.61035293		3.62768764		3.31512703		 0.00085073		-0.00020118		 0.00044707	
O		0.92170288		0.77492170		0.64478957		-0.00000927		-0.00017824		-0.00037034	
O		7.38262640		8.14247787		3.90046547		 0.00000927		 0.00017824		 0.00037034	
O		8.10031081		0.77492170		1.62783698		 0.00001733		-0.00017958		 0.00037189	
O		0.20401847		8.14247787		2.91741709		-0.00001733		 0.00017958		-0.00037189	
O		5.79155387		5.23362198		0.64478957		-0.00043967		-0.00023365		-0.00045897	
O		2.51277638		3.68377760		3.90046547		 0.00043967		 0.00023365		 0.00045897	
O		3.23046079		5.23362198		1.62783698		 0.00045058		-0.00023515		 0.00046112	
O		5.07386849		3.68377760		2.91741709		-0.00045058		 0.00023515		-0.00046112	
O		3.05934400		2.23104387		1.44430012		-0.00009083		 0.00061367		 0.00040771	
O		5.24498528		6.68635570		3.10095492		 0.00009083		-0.00061367		-0.00040771	
O		5.96267066		2.23104387		0.82832740		 0.00009372		 0.00060620		-0.00040564	
O		2.34165764		6.68635570		3.71692667		-0.00009372		-0.00060620		 0.00040564	
O		7.92919402		6.68974512		1.44430012		-0.00028345		 0.00030613		 0.00029934	
O		0.37513526		2.22765640		3.10095492		 0.00028345		-0.00030613		-0.00029934	
O		1.09282064		6.68974512		0.82832740		 0.00028726		 0.00029652		-0.00029670	
O		7.21150767		2.22765640		3.71692667		-0.00028726		-0.00029652		 0.00029670	
O		1.98719392		0.15551866		4.52448318		 0.00014009		 0.00020875		-0.00022617	
O		6.31713633		8.76188091		0.02077186		-0.00014009		-0.00020875		 0.00022617	
O		5.59944998		0.15551866		2.29339938		-0.00013956		 0.00020812		 0.00022564	
O		2.70487930		8.76188091		2.25185566		 0.00013956		-0.00020812		-0.00022564	
O		6.85704394		4.61421991		4.52448318		 0.00002139		 0.00021631		-0.00023165	
O		1.44728534		4.30318064		0.02077186		-0.00002139		-0.00021631		 0.00023165	
O		0.72959996		4.61421991		2.29339938		-0.00002024		 0.00021632		 0.00023002	
O		7.57472933		4.30318064		2.25185566		 0.00002024		-0.00021632		-0.00023002	
