# total energy = -22469.9398805 eV	

CRYSTAL	
PRIMVEC	
		9.73970004		0.00000000		0.00000000	
		0.00000000		8.91739665		0.00000000	
		-1.43536881		0.00000000		5.17654344	
PRIMCOORD
   40 1	
Mg		-0.35884269		8.09771323		1.29413537		-0.00000000		 0.00009125		 0.00000001	
Mg		-1.07652807		0.81968829		3.88240514		0.00000000		-0.00009125		-0.00000001	
Mg		4.51100733		3.63901296		1.29413537		-0.00000000		 0.00009561		-0.00000001	
Mg		3.79332195		5.27838758		3.88240514		0.00000000		-0.00009561		 0.00000001	
Ca		-0.35884269		2.68841824		1.29413537		 0.00000001		-0.00049857		-0.00000002	
Ca		-1.07652807		6.22898328		3.88240514		-0.00000001		 0.00049857		 0.00000002	
Ca		4.51100733		7.14711851		1.29413537		 0.00000005		-0.00050449		-0.00000001	
Ca		3.79332195		1.77028204		3.88240514		-0.00000005		 0.00050449		 0.00000001	
Si		2.45818828		0.83101264		1.18729086		-0.00041737		 0.00044471		-0.00015689	
Si		5.84614100		8.08638791		3.98924868		 0.00041737		-0.00044471		 0.00015689	
Si		6.56382638		0.83101264		1.40097891		 0.00041709		 0.00044506		 0.00015671	
Si		1.74050290		8.08638791		3.77556063		-0.00041709		-0.00044506		-0.00015671	
Si		7.32803928		5.28971291		1.18729086		-0.00048708		 0.00040267		-0.00018679	
Si		0.97629098		3.62768764		3.98924868		 0.00048708		-0.00040267		 0.00018679	
Si		1.69397636		5.28971291		1.40097891		 0.00048681		 0.00040291		 0.00018656	
Si		6.61035293		3.62768764		3.77556063		-0.00048681		-0.00040291		-0.00018656	
O		0.92170288		0.77492170		0.73434416		-0.00023925		 0.00012787		 0.00047249	
O		7.38262640		8.14247787		4.44219635		 0.00023925		-0.00012787		-0.00047249	
O		8.10031081		0.77492170		1.85392561		 0.00023948		 0.00012785		-0.00047238	
O		0.20401847		8.14247787		3.32261393		-0.00023948		-0.00012785		 0.00047238	
O		5.79155387		5.23362198		0.73434416		-0.00019486		 0.00013380		 0.00048609	
O		2.51277638		3.68377760		4.44219635		 0.00019486		-0.00013380		-0.00048609	
O		3.23046079		5.23362198		1.85392561		 0.00019501		 0.00013378		-0.00048607	
O		5.07386849		3.68377760		3.32261393		-0.00019501		-0.00013378		 0.00048607	
O		3.05934400		2.23104387		1.64489703		-0.00029291		-0.00030434		 0.00022191	
O		5.24498528		6.68635570		3.53164348		 0.00029291		 0.00030434		-0.00022191	
O		5.96267066		2.23104387		0.94337274		 0.00029299		-0.00030461		-0.00022183	
O		2.34165764		6.68635570		4.23316680		-0.00029299		 0.00030461		 0.00022183	
O		7.92919402		6.68974512		1.64489703		-0.00026750		-0.00026176		 0.00023434	
O		0.37513526		2.22765640		3.53164348		 0.00026750		 0.00026176		-0.00023434	
O		1.09282064		6.68974512		0.94337274		 0.00026758		-0.00026199		-0.00023423	
O		7.21150767		2.22765640		4.23316680		-0.00026758		 0.00026199		 0.00023423	
O		1.98719392		0.15551866		5.15288278		 0.00055894		-0.00043447		 0.00041013	
O		6.31713633		8.76188091		0.02365676		-0.00055894		 0.00043447		-0.00041013	
O		5.59944998		0.15551866		2.61192653		-0.00055892		-0.00043448		-0.00041013	
O		2.70487930		8.76188091		2.56461301		 0.00055892		 0.00043448		 0.00041013	
O		6.85704394		4.61421991		5.15288278		 0.00056854		-0.00043301		 0.00041424	
O		1.44728534		4.30318064		0.02365676		-0.00056854		 0.00043301		-0.00041424	
O		0.72959996		4.61421991		2.61192653		-0.00056855		-0.00043293		-0.00041435	
O		7.57472933		4.30318064		2.56461301		 0.00056855		 0.00043293		 0.00041435	
