# total energy = -41274.3825723 eV	

CRYSTAL	
PRIMVEC	
		5.69830037		-0.22793179		0.00000000	
		-0.45751740		11.43799779		0.00000000	
		0.00000000		0.00000000		8.25660201	
PRIMCOORD
   56 1	
Mg		0.00000000		0.00000000		0.00000000		0.00000000		0.00000000		0.00000000	
Mg		-0.22875984		5.71900003		0.00000000		0.00000000		0.00000000		0.00000000	
Mg		2.62039035		5.60503414		4.12829986		0.00000000		0.00000000		0.00000000	
Mg		2.84915019		-0.11396589		4.12829986		0.00000000		0.00000000		0.00000000	
Mg		-0.11437992		2.85950030		8.00972818		0.00000000		0.00000000		-0.00053896	
Mg		-0.34313976		8.57850034		0.24687212		-0.00000000		-0.00000000		 0.00053896	
Mg		2.50600985		8.46453444		3.88142832		0.00000000		-0.00000000		-0.00053895	
Mg		2.73477027		2.74553384		4.37517312		-0.00000000		0.00000000		 0.00053895	
Mg		1.36619523		1.40250589		2.06415022		-0.00042892		-0.00049667		 0.00057124	
Mg		3.87458432		9.80756239		6.19245008		 0.00042892		 0.00049667		-0.00057124	
Mg		4.10334416		4.08856236		2.06415022		 0.00042892		 0.00049667		 0.00057124	
Mg		1.13743482		7.12150593		6.19245008		-0.00042892		-0.00049667		-0.00057124	
Mg		3.98658501		7.00754003		6.19245008		-0.00042889		-0.00049666		 0.00057125	
Mg		1.25419511		4.20252825		2.06415022		 0.00042889		 0.00049666		-0.00057125	
Mg		1.02543527		9.92152828		6.19245008		 0.00042890		 0.00049665		 0.00057125	
Mg		4.21534485		1.28854000		2.06415022		-0.00042890		-0.00049665		-0.00057125	
Si		-0.05481073		1.37027220		5.09267122		-0.00036976		-0.00023640		-0.00035192	
Si		-0.40270895		10.06772844		3.16392907		 0.00036976		 0.00023640		 0.00035192	
Si		-0.17394911		4.34872726		5.09267122		 0.00036979		 0.00023641		-0.00035194	
Si		-0.28357114		7.08927224		3.16392907		-0.00036979		-0.00023641		 0.00035194	
Si		2.56557905		6.97530635		0.96437079		-0.00036974		-0.00023643		-0.00035190	
Si		2.67520107		4.23476137		7.29222893		 0.00036974		 0.00023643		 0.00035190	
Si		2.44644123		9.95376197		0.96437079		 0.00036981		 0.00023641		-0.00035191	
Si		2.79433889		1.25630631		7.29222893		-0.00036981		-0.00023641		 0.00035191	
O		-0.11437992		2.85950030		1.78838001		-0.00000000		0.00000000		 0.00020173	
O		-0.34313976		8.57850034		6.46822142		0.00000000		-0.00000000		-0.00020173	
O		2.50600985		8.46453444		5.91667988		-0.00000001		0.00000000		 0.00020173	
O		2.73477027		2.74553384		2.33992099		 0.00000001		-0.00000000		-0.00020173	
O		-0.11437992		2.85950030		5.91502890		0.00000000		-0.00000000		 0.00053955	
O		-0.34313976		8.57850034		2.34157197		-0.00000000		0.00000000		-0.00053955	
O		2.50600985		8.46453444		1.78672904		-0.00000000		 0.00000001		 0.00053954	
O		2.73477027		2.74553384		6.46987240		0.00000000		-0.00000001		-0.00053954	
O		-0.45294485		11.32362015		2.11203825		 0.00009994		 0.00033838		-0.00027535	
O		-0.00457483		0.11437992		6.14456205		-0.00009994		-0.00033838		 0.00027535	
O		-0.23333524		5.83337996		2.11203825		-0.00009992		-0.00033839		-0.00027535	
O		-0.22418501		5.60462011		6.14456205		 0.00009992		 0.00033839		 0.00027535	
O		2.62496518		5.49065422		6.24033925		 0.00009993		 0.00033838		-0.00027536	
O		2.61581494		5.71941406		2.01626219		-0.00009993		-0.00033838		 0.00027536	
O		2.84457479		0.00041403		6.24033925		-0.00009993		-0.00033837		-0.00027537	
O		2.39620534		11.20965426		2.01626219		 0.00009993		 0.00033837		 0.00027537	
O		1.43405923		1.34155091		8.19467639		-0.00064601		-0.00020282		 0.00057024	
O		3.80672089		9.86851738		0.06192390		 0.00064601		 0.00020282		-0.00057024	
O		4.03548130		4.14951734		8.19467639		 0.00064605		 0.00020281		 0.00057026	
O		1.20529882		7.06055094		0.06192390		-0.00064605		-0.00020281		-0.00057026	
O		3.92338823		6.95182711		0.06192390		 0.00016582		 0.00032488		-0.00034381	
O		1.31739189		4.25824117		8.19467639		-0.00016582		-0.00032488		 0.00034381	
O		1.08863205		9.97724120		0.06192390		-0.00016581		-0.00032487		-0.00034381	
O		4.15214807		1.23282708		8.19467639		 0.00016581		 0.00032487		 0.00034381	
O		4.05444901		6.94658505		4.06637596		-0.00064600		-0.00020282		 0.00057025	
O		1.18633112		4.26348324		4.19022491		 0.00064600		 0.00020282		-0.00057025	
O		0.95757127		9.98248327		4.06637596		 0.00064602		 0.00020283		 0.00057026	
O		4.28320885		1.22758501		4.19022491		-0.00064602		-0.00020283		-0.00057026	
O		1.30299788		1.34679297		4.19022491		 0.00016580		 0.00032486		-0.00034381	
O		3.93778224		9.86327531		4.06637596		-0.00016580		-0.00032486		 0.00034381	
O		4.16654208		4.14427528		4.19022491		-0.00016580		-0.00032487		-0.00034382	
O		1.07423804		7.06579301		4.06637596		 0.00016580		 0.00032487		 0.00034382	
