# total energy = -41271.2919693 eV	

CRYSTAL	
PRIMVEC	
		5.69829843		-0.45586273		0.00000000	
		-0.91504103		11.43800150		0.00000000	
		0.00000000		0.00000000		8.25660041	
PRIMCOORD
   56 1	
Mg		0.00000000		0.00000000		0.00000000		0.00000000		0.00000000		0.00000000	
Mg		-0.45751995		5.71900018		0.00000000		0.00000000		0.00000000		0.00000000	
Mg		2.39162984		5.49106824		4.12830021		0.00000000		0.00000000		0.00000000	
Mg		2.84914978		-0.22793194		4.12830021		0.00000000		0.00000000		0.00000000	
Mg		-0.22876026		2.85950009		8.00972798		0.00000000		0.00000000		 0.00027180	
Mg		-0.68628020		8.57850027		0.24687186		-0.00000000		-0.00000000		-0.00027180	
Mg		2.16287015		8.35056776		3.88142777		-0.00000000		0.00000000		 0.00027180	
Mg		2.62039010		2.63156815		4.37517321		0.00000000		-0.00000000		-0.00027180	
Mg		1.30781584		1.34552305		2.06415010		 0.00012430		 0.00025086		 0.00000478	
Mg		3.47544384		9.63661286		6.19244974		-0.00012430		-0.00025086		-0.00000478	
Mg		3.93296378		3.91761325		2.06415010		-0.00012429		-0.00025086		 0.00000478	
Mg		0.85029589		7.06452323		6.19244974		 0.00012429		 0.00025086		-0.00000478	
Mg		3.69944625		6.83659129		6.19244974		 0.00012428		 0.00025086		 0.00000475	
Mg		1.08381400		4.14554519		2.06415010		-0.00012428		-0.00025086		-0.00000475	
Mg		0.62629405		9.86454480		6.19244974		-0.00012428		-0.00025086		 0.00000475	
Mg		4.15696620		1.11759112		2.06415010		 0.00012428		 0.00025086		-0.00000475	
Si		-0.10962200		1.37027209		5.09267125		 0.00009815		 0.00000865		 0.00002640	
Si		-0.80541790		10.06772827		3.16392916		-0.00009815		-0.00000865		-0.00002640	
Si		-0.34789795		4.34872694		5.09267125		-0.00009813		-0.00000865		 0.00002636	
Si		-0.56714194		7.08927227		3.16392916		 0.00009813		 0.00000865		-0.00002636	
Si		2.28200784		6.86133976		0.96437105		 0.00009819		 0.00000856		 0.00002658	
Si		2.50125183		4.12079501		7.29222880		-0.00009819		-0.00000856		-0.00002658	
Si		2.04373189		9.83979576		0.96437105		-0.00009818		-0.00000857		 0.00002654	
Si		2.73952779		1.14234015		7.29222880		 0.00009818		 0.00000857		-0.00002654	
O		-0.22876026		2.85950009		1.78838016		-0.00000000		0.00000000		-0.00056148	
O		-0.68628020		8.57850027		6.46822082		0.00000000		-0.00000000		 0.00056148	
O		2.16287015		8.35056776		5.91667980		0.00000000		0.00000000		-0.00056144	
O		2.62039010		2.63156815		2.33992119		-0.00000000		-0.00000000		 0.00056144	
O		-0.22876026		2.85950009		5.91502887		-0.00000000		0.00000000		-0.00027235	
O		-0.68628020		8.57850027		2.34157212		0.00000000		-0.00000000		 0.00027235	
O		2.16287015		8.35056776		1.78672924		-0.00000000		 0.00000001		-0.00027238	
O		2.62039010		2.63156815		6.46987175		0.00000000		-0.00000001		 0.00027238	
O		-0.90589005		11.32361994		2.11203784		 0.00021357		-0.00005030		-0.00015054	
O		-0.00914984		0.11437984		6.14456200		-0.00021357		 0.00005030		 0.00015054	
O		-0.46666978		5.83338002		2.11203784		-0.00021356		 0.00005029		-0.00015055	
O		-0.44837011		5.60461976		6.14456200		 0.00021356		-0.00005029		 0.00015055	
O		2.40078025		5.37668783		6.24033919		 0.00021357		-0.00005037		-0.00015044	
O		2.38248000		5.60544809		2.01626179		-0.00021357		 0.00005037		 0.00015044	
O		2.83999995		-0.11355209		6.24033919		-0.00021357		 0.00005036		-0.00015045	
O		1.94325973		11.09568801		2.01626179		 0.00021357		-0.00005036		 0.00015045	
O		1.37801281		1.28194694		8.19467580		-0.00012081		 0.00008988		-0.00015538	
O		3.40524687		9.70018898		0.06192405		 0.00012081		-0.00008988		 0.00015538	
O		3.86276681		3.98118880		8.19467580		 0.00012083		-0.00008987		-0.00015536	
O		0.92049287		7.00094597		0.06192405		-0.00012083		 0.00008987		 0.00015536	
O		3.63858204		6.78349925		0.06192405		 0.00005633		 0.00019350		-0.00010668	
O		1.14467821		4.19863609		8.19467580		-0.00005633		-0.00019350		 0.00010668	
O		0.68715826		9.91763627		0.06192405		-0.00005633		-0.00019351		-0.00010669	
O		4.09610199		1.06449907		8.19467580		 0.00005633		 0.00019351		 0.00010669	
O		3.76964322		6.77301404		4.06637616		-0.00012075		 0.00008987		-0.00015542	
O		1.01361703		4.20912073		4.19022482		 0.00012075		-0.00008987		 0.00015542	
O		0.55609708		9.92812091		4.06637616		 0.00012076		-0.00008987		-0.00015542	
O		4.22716317		1.05401500		4.19022482		-0.00012076		 0.00008987		 0.00015542	
O		1.24695221		1.29243101		4.19022482		 0.00005630		 0.00019351		-0.00010667	
O		3.53630804		9.68970376		4.06637616		-0.00005630		-0.00019351		 0.00010667	
O		3.99382799		3.97070415		4.19022482		-0.00005630		-0.00019351		-0.00010668	
O		0.78943226		7.01143119		4.06637616		 0.00005630		 0.00019351		 0.00010668	
