# total energy = -20638.404494 eV

CRYSTAL
PRIMVEC
		10.20141015		0.00000000		-0.40805600
		0.00000000		5.98348044		0.00000000
		-0.19021445		0.00000000		4.75534093
PRIMECORD
   28 1
Mg		0.00000000		0.00000000		0.00000000		0.00000000		0.00000000		0.00000000
Mg		5.00559785		0.00000000		2.17364144		0.00000000		0.00000000		0.00000000
Mg		0.00000000		2.99174022		0.00000000		0.00000000		0.00000000		0.00000000
Mg		5.00559785		2.99174022		2.17364144		0.00000000		0.00000000		0.00000000
Mg		2.64025442		1.49587011		4.60176555		-0.00028178		-0.00000000		-0.00076237
Mg		7.37094230		4.48761033		-0.25448164		 0.00028178		0.00000000		 0.00076237
Mg		2.17836439		4.48761033		2.24637645		-0.00083773		0.00000000		 0.00022796
Mg		7.83283233		1.49587011		2.10090746		 0.00083773		0.00000000		-0.00022796
Si		0.87782475		1.49587011		1.98931995		-0.00041465		0.00000000		-0.00025455
Si		9.13337095		4.48761033		2.35796396		 0.00041465		0.00000000		 0.00025455
Si		3.96555941		4.48761033		4.23967609		-0.00011207		0.00000000		-0.00009231
Si		6.04563833		1.49587011		0.10760782		 0.00011207		0.00000000		 0.00009231
O		0.78887899		1.49587011		3.60188440		 0.00011495		0.00000000		-0.00020368
O		9.22231772		4.48761033		0.74539951		-0.00011495		0.00000000		 0.00020368
O		4.11579217		4.48761033		1.09494141		 0.00035800		0.00000000		-0.00003195
O		5.89540352		1.49587011		3.25234148		-0.00035800		0.00000000		 0.00003195
O		4.51695365		1.49587011		0.86904452		 0.00020112		0.00000000		 0.00031532
O		5.49424307		4.48761033		3.47823939		-0.00020112		0.00000000		-0.00031532
O		0.40453165		4.48761033		3.40740745		 0.00050614		0.00000000		-0.00004100
O		9.60666506		1.49587011		0.93987646		-0.00050614		0.00000000		 0.00004100
O		1.60692774		0.19865164		1.25464253		-0.00019675		 0.00044105		-0.00015894
O		8.40426897		5.78482778		3.09264138		 0.00019675		-0.00044105		 0.00015894
O		3.29298781		5.78482778		3.56106553		 0.00011186		 0.00028411		 0.00024404
O		6.71820891		0.19865164		0.78621838		-0.00011186		-0.00028411		-0.00024404
O		8.40426897		3.19039186		3.09264138		 0.00019675		 0.00044105		 0.00015894
O		1.60692774		2.79308756		1.25464253		-0.00019675		-0.00044105		-0.00015894
O		6.71820891		2.79308756		0.78621838		-0.00011186		 0.00028411		-0.00024404
O		3.29298781		3.19039186		3.56106553		 0.00011186		-0.00028411		 0.00024404
