# total energy = -20631.2483772 eV

CRYSTAL
PRIMVEC
		10.20141391		0.00000000		-1.63223077
		0.00000000		5.98347901		0.00000000
		-0.76085916		0.00000000		4.75534134
PRIMECORD
   28 1
Mg		0.00000000		0.00000000		0.00000000		0.00000000		0.00000000		0.00000000
Mg		4.72027841		0.00000000		1.56155735		0.00000000		0.00000000		0.00000000
Mg		0.00000000		2.99173950		0.00000000		0.00000000		0.00000000		0.00000000
Mg		4.72027841		2.99173950		1.56155735		0.00000000		0.00000000		0.00000000
Mg		2.07446447		1.49586975		4.26230415		-0.00012987		0.00000000		-0.00045151
Mg		7.36609235		4.48761029		-1.13918945		 0.00012987		0.00000000		 0.00045151
Mg		1.89789353		4.48761029		1.97375319		 0.00011833		0.00000000		-0.00049873
Mg		7.54266226		1.49586975		1.14936151		-0.00011833		-0.00000000		 0.00049873
Si		0.63450387		1.49586975		1.87424756		-0.00011536		-0.00000000		 0.00011161
Si		8.80605191		4.48761029		1.24886714		 0.00011536		-0.00000000		-0.00011161
Si		3.43691655		4.48761029		3.74266318		 0.00018447		-0.00000000		-0.00063172
Si		6.00363924		1.49586975		-0.61954951		-0.00018447		-0.00000000		 0.00063172
O		0.35216662		1.49586975		3.48975012		-0.00044864		0.00000000		-0.00015161
O		9.08838917		4.48761029		-0.36663541		 0.00044864		0.00000000		 0.00015161
O		3.96440094		4.48761029		0.59499131		-0.00018811		0.00000000		-0.00062028
O		5.47615485		1.49586975		2.52812443		 0.00018811		0.00000000		 0.00062028
O		4.39078456		1.49586975		0.32196450		-0.00035557		0.00000000		 0.00015009
O		5.04977019		4.48761029		2.80115124		 0.00035557		0.00000000		-0.00015009
O		-0.00695701		4.48761029		3.34240397		-0.00027900		0.00000000		-0.00060878
O		9.44751279		1.49586975		-0.21929030		 0.00027900		0.00000000		 0.00060878
O		1.44840426		0.19865173		1.05546984		-0.00027733		-0.00039205		 0.00036332
O		7.99215153		5.78482830		2.06764383		 0.00027733		 0.00039205		-0.00036332
O		2.84914259		5.78482830		3.14815434		 0.00025310		-0.00005535		-0.00073309
O		6.59141319		0.19865173		-0.02503861		-0.00025310		 0.00005535		 0.00073309
O		7.99215153		3.19039227		2.06764383		 0.00027733		-0.00039205		-0.00036332
O		1.44840426		2.79308777		1.05546984		-0.00027733		 0.00039205		 0.00036332
O		6.59141319		2.79308777		-0.02503861		-0.00025310		-0.00005535		 0.00073309
O		2.84914259		3.19039227		3.14815434		 0.00025310		 0.00005535		-0.00073309
