# total energy = -44011.0948258 eV

CRYSTAL
PRIMVEC
		9.81799975		0.00000000		0.00000000
		0.00000000		19.40052459		0.00000000
		-1.33411890		0.00000000		5.10350427
PRIMECORD
   82 1
Si		2.35753443		1.62964363		1.51267886		-0.00015111		-0.00004510		-0.00016025
Si		6.12634446		17.77088194		3.59082443		 0.00015111		 0.00004510		 0.00016025
Si		6.12634446		1.62964363		3.59082443		 0.00015111		-0.00004510		 0.00016025
Si		2.35753443		17.77088194		1.51267886		-0.00015111		 0.00004510		-0.00016025
Si		7.26653430		11.32990691		1.51267886		-0.00012435		-0.00004542		-0.00015285
Si		1.21734557		8.07061866		3.59082443		 0.00012435		 0.00004542		 0.00015285
Si		1.21734557		11.32990691		3.59082443		 0.00012435		-0.00004542		 0.00015285
Si		7.26653430		8.07061866		1.51267886		-0.00012435		 0.00004542		-0.00015285
Si		1.76155730		3.31943037		4.10423807		 0.00018698		-0.00006573		-0.00002212
Si		6.72232257		16.08109520		0.99926620		-0.00018698		 0.00006573		 0.00002212
Si		6.72232257		3.31943037		0.99926620		-0.00018698		-0.00006573		 0.00002212
Si		1.76155730		16.08109520		4.10423807		 0.00018698		 0.00006573		-0.00002212
Si		6.67055717		13.01969267		4.10423807		 0.00021231		-0.00005388		-0.00001882
Si		1.81332172		6.38083291		0.99926620		-0.00021231		 0.00005388		 0.00001882
Si		1.81332172		13.01969267		0.99926620		-0.00021231		-0.00005388		 0.00001882
Si		6.67055717		6.38083291		4.10423807		 0.00021231		 0.00005388		-0.00001882
O		2.58846753		2.29896220		3.00290199		 0.00043015		 0.00014963		-0.00001851
O		5.89541038		17.10156337		2.10060228		-0.00043015		-0.00014963		 0.00001851
O		5.89541038		2.29896220		2.10060228		-0.00043015		 0.00014963		 0.00001851
O		2.58846753		17.10156337		3.00290199		 0.00043015		-0.00014963		-0.00001851
O		7.49746838		11.99922450		3.00290199		 0.00042645		 0.00014670		-0.00002387
O		0.98641051		7.40130107		2.10060228		-0.00042645		-0.00014670		 0.00002387
O		0.98641051		11.99922450		2.10060228		-0.00042645		 0.00014670		 0.00002387
O		7.49746838		7.40130107		3.00290199		 0.00042645		-0.00014670		-0.00002387
O		0.80703271		1.66844535		1.10797109		-0.00052749		-0.00058441		-0.00032926
O		7.67684716		17.73207924		3.99553318		 0.00052749		 0.00058441		 0.00032926
O		7.67684716		1.66844535		3.99553318		 0.00052749		-0.00058441		 0.00032926
O		0.80703271		17.73207924		1.10797109		-0.00052749		 0.00058441		-0.00032926
O		5.71603258		11.36870863		1.10797109		-0.00055077		-0.00058834		-0.00033268
O		2.76784729		8.03181793		3.99553318		 0.00055077		 0.00058834		 0.00033268
O		2.76784729		11.36870863		3.99553318		 0.00055077		-0.00058834		 0.00033268
O		5.71603258		8.03181793		1.10797109		-0.00055077		 0.00058834		-0.00033268
O		2.52914030		4.81132943		4.04860928		-0.00034162		 0.00002921		-0.00023790
O		5.95473957		14.58919418		1.05489400		 0.00034162		-0.00002921		 0.00023790
O		5.95473957		4.81132943		1.05489400		 0.00034162		 0.00002921		 0.00023790
O		2.52914030		14.58919418		4.04860928		-0.00034162		-0.00002921		-0.00023790
O		7.43813919		14.51159369		4.04860928		-0.00034958		 0.00001829		-0.00023914
O		1.04573970		4.88893286		1.05489400		 0.00034958		-0.00001829		 0.00023914
O		1.04573970		14.51159369		1.05489400		 0.00034958		 0.00001829		 0.00023914
O		7.43813919		4.88893286		4.04860928		-0.00034958		-0.00001829		-0.00023914
O		2.91896987		0.00000000		1.49073268		-0.00008988		0.00000000		-0.00059403
O		5.56491000		0.00000000		3.61276962		 0.00008988		0.00000000		 0.00059403
O		7.82796876		9.70026230		1.49073268		-0.00009508		0.00000000		-0.00059394
O		0.65591013		9.70026230		3.61276962		 0.00009508		0.00000000		 0.00059394
O		0.19753030		3.32136943		3.69493646		-0.00012442		-0.00012688		-0.00054912
O		8.28634957		16.07915419		1.40856682		 0.00012442		 0.00012688		 0.00054912
O		8.28634957		3.32136943		1.40856682		 0.00012442		-0.00012688		 0.00054912
O		0.19753030		16.07915419		3.69493646		-0.00012442		 0.00012688		-0.00054912
O		5.10653018		13.02163369		3.69493646		-0.00013748		-0.00012850		-0.00055295
O		3.37734970		6.37889287		1.40856682		 0.00013748		 0.00012850		 0.00055295
O		3.37734970		13.02163369		1.40856682		 0.00013748		-0.00012850		 0.00055295
O		5.10653018		6.37889287		3.69493646		-0.00013748		 0.00012850		-0.00055295
O		0.12189047		0.00000000		3.65002599		-0.00060749		-0.00000000		-0.00007241
O		8.36198940		0.00000000		1.45347828		 0.00060749		-0.00000000		 0.00007241
O		5.03089034		9.70026230		3.65002599		-0.00086600		-0.00000000		-0.00014426
O		3.45298953		9.70026230		1.45347828		 0.00086600		-0.00000000		 0.00014426
O		3.26959224		2.60549096		0.50626810		 0.00078278		-0.00015997		 0.00000817
O		5.21428665		16.79503462		4.59723617		-0.00078278		 0.00015997		-0.00000817
O		5.21428665		2.60549096		4.59723617		-0.00078278		-0.00015997		-0.00000817
O		3.26959224		16.79503462		0.50626810		 0.00078278		 0.00015997		 0.00000817
O		8.17859310		12.30575227		0.50626810		 0.00077775		-0.00016308		 0.00001219
O		0.30528678		7.09477134		4.59723617		-0.00077775		 0.00016308		-0.00001219
O		0.30528678		12.30575227		4.59723617		-0.00077775		-0.00016308		-0.00001219
O		8.17859310		7.09477134		0.50626810		 0.00077775		 0.00016308		 0.00001219
Ca		-0.66706043		5.38558620		2.55175213		0.00000000		-0.00071989		0.00000000
Ca		-0.66706043		14.01493937		2.55175213		0.00000000		 0.00071989		0.00000000
Ca		4.24193944		15.08584850		2.55175213		0.00000000		-0.00071779		0.00000000
Ca		4.24193944		4.31467708		2.55175213		0.00000000		 0.00071779		0.00000000
Mg		0.00000000		0.00000000		0.00000000		0.00000000		0.00000000		0.00000000
Mg		4.90899987		9.70026230		0.00000000		0.00000000		0.00000000		0.00000000
Mg		0.00000000		3.42613337		0.00000000		0.00000000		-0.00003718		0.00000000
Mg		0.00000000		15.97439220		0.00000000		0.00000000		 0.00003718		0.00000000
Mg		4.90899987		13.12639469		0.00000000		0.00000000		-0.00003468		0.00000000
Mg		4.90899987		6.27412990		0.00000000		0.00000000		 0.00003468		0.00000000
Mg		-0.66706043		1.70336601		2.55175213		0.00000000		-0.00000003		0.00000000
Mg		-0.66706043		17.69715858		2.55175213		0.00000000		 0.00000003		0.00000000
Mg		4.24193944		11.40362929		2.55175213		0.00000000		-0.00000442		0.00000000
Mg		4.24193944		7.99689727		2.55175213		0.00000000		 0.00000442		0.00000000
H		0.92650893		0.00000000		3.92969760		 0.00043252		-0.00000000		 0.00076488
H		7.55736996		0.00000000		1.17380569		-0.00043252		-0.00000000		-0.00076488
H		5.83550880		9.70026230		3.92969760		 0.00067101		0.00000000		 0.00083125
H		2.64837009		9.70026230		1.17380569		-0.00067101		0.00000000		-0.00083125
