# total energy = -44008.9945608 eV

CRYSTAL
PRIMVEC
		9.81799975		0.00000000		0.00000000
		0.00000000		16.69347625		0.00000000
		-1.33411890		0.00000000		5.10350427
PRIMECORD
   82 1
Si		2.35753443		1.40225189		1.51267886		-0.00011119		 0.00017596		 0.00034275
Si		6.12634446		15.29122338		3.59082443		 0.00011119		-0.00017596		-0.00034275
Si		6.12634446		1.40225189		3.59082443		 0.00011119		 0.00017596		-0.00034275
Si		2.35753443		15.29122338		1.51267886		-0.00011119		-0.00017596		 0.00034275
Si		7.26653430		9.74899001		1.51267886		-0.00054918		 0.00008554		 0.00024123
Si		1.21734557		6.94448624		3.59082443		 0.00054918		-0.00008554		-0.00024123
Si		1.21734557		9.74899001		3.59082443		 0.00054918		 0.00008554		-0.00024123
Si		7.26653430		6.94448624		1.51267886		-0.00054918		-0.00008554		 0.00024123
Si		1.76155730		2.85625347		4.10423807		 0.00032226		 0.00021833		 0.00037092
Si		6.72232257		13.83722180		0.99926620		-0.00032226		-0.00021833		-0.00037092
Si		6.72232257		2.85625347		0.99926620		-0.00032226		 0.00021833		-0.00037092
Si		1.76155730		13.83722180		4.10423807		 0.00032226		-0.00021833		 0.00037092
Si		6.67055717		11.20299159		4.10423807		-0.00044215		-0.00037765		 0.00032766
Si		1.81332172		5.49048367		0.99926620		 0.00044215		 0.00037765		-0.00032766
Si		1.81332172		11.20299159		0.99926620		 0.00044215		-0.00037765		-0.00032766
Si		6.67055717		5.49048367		4.10423807		-0.00044215		 0.00037765		 0.00032766
O		2.58846753		1.97817673		3.00290199		-0.00074093		 0.00010541		-0.00010481
O		5.89541038		14.71529853		2.10060228		 0.00074093		-0.00010541		 0.00010481
O		5.89541038		1.97817673		2.10060228		 0.00074093		 0.00010541		 0.00010481
O		2.58846753		14.71529853		3.00290199		-0.00074093		-0.00010541		-0.00010481
O		7.49746838		10.32491486		3.00290199		-0.00066913		 0.00018247		-0.00000307
O		0.98641051		6.36856041		2.10060228		 0.00066913		-0.00018247		 0.00000307
O		0.98641051		10.32491486		2.10060228		 0.00066913		 0.00018247		 0.00000307
O		7.49746838		6.36856041		3.00290199		-0.00066913		-0.00018247		-0.00000307
O		0.80703271		1.43563898		1.10797109		-0.00005997		 0.00081973		 0.00029655
O		7.67684716		15.25783531		3.99553318		 0.00005997		-0.00081973		-0.00029655
O		7.67684716		1.43563898		3.99553318		 0.00005997		 0.00081973		-0.00029655
O		0.80703271		15.25783531		1.10797109		-0.00005997		-0.00081973		 0.00029655
O		5.71603258		9.78237710		1.10797109		 0.00024168		 0.00082487		 0.00037403
O		2.76784729		6.91109915		3.99553318		-0.00024168		-0.00082487		-0.00037403
O		2.76784729		9.78237710		3.99553318		-0.00024168		 0.00082487		-0.00037403
O		5.71603258		6.91109915		1.10797109		 0.00024168		-0.00082487		 0.00037403
O		2.52914030		4.13998148		4.04860928		-0.00003853		-0.00010297		 0.00004066
O		5.95473957		12.55349280		1.05489400		 0.00003853		 0.00010297		-0.00004066
O		5.95473957		4.13998148		1.05489400		 0.00003853		-0.00010297		-0.00004066
O		2.52914030		12.55349280		4.04860928		-0.00003853		 0.00010297		 0.00004066
O		7.43813919		12.48671960		4.04860928		 0.00032037		 0.00044538		 0.00004055
O		1.04573970		4.20675566		1.05489400		-0.00032037		-0.00044538		-0.00004055
O		1.04573970		12.48671960		1.05489400		-0.00032037		 0.00044538		-0.00004055
O		7.43813919		4.20675566		4.04860928		 0.00032037		-0.00044538		 0.00004055
O		2.91896987		0.00000000		1.49073268		 0.00016791		-0.00000000		 0.00027454
O		5.56491000		0.00000000		3.61276962		-0.00016791		-0.00000000		-0.00027454
O		7.82796876		8.34673812		1.49073268		 0.00024832		0.00000000		 0.00027944
O		0.65591013		8.34673812		3.61276962		-0.00024832		0.00000000		-0.00027944
O		0.19753030		2.85792253		3.69493646		 0.00003560		 0.00010388		 0.00065322
O		8.28634957		13.83555176		1.40856682		-0.00003560		-0.00010388		-0.00065322
O		8.28634957		2.85792253		1.40856682		-0.00003560		 0.00010388		-0.00065322
O		0.19753030		13.83555176		3.69493646		 0.00003560		-0.00010388		 0.00065322
O		5.10653018		11.20466163		3.69493646		 0.00046438		 0.00016835		 0.00075189
O		3.37734970		5.48881461		1.40856682		-0.00046438		-0.00016835		-0.00075189
O		3.37734970		11.20466163		1.40856682		-0.00046438		 0.00016835		-0.00075189
O		5.10653018		5.48881461		3.69493646		 0.00046438		-0.00016835		 0.00075189
O		0.12189047		0.00000000		3.65002599		-0.00000912		0.00000000		-0.00034640
O		8.36198940		0.00000000		1.45347828		 0.00000912		0.00000000		 0.00034640
O		5.03089034		8.34673812		3.65002599		 0.00021595		-0.00000000		-0.00029616
O		3.45298953		8.34673812		1.45347828		-0.00021595		-0.00000000		 0.00029616
O		3.26959224		2.24193435		0.50626810		-0.00093882		-0.00001174		 0.00018399
O		5.21428665		14.45154190		4.59723617		 0.00093882		 0.00001174		-0.00018399
O		5.21428665		2.24193435		4.59723617		 0.00093882		-0.00001174		-0.00018399
O		3.26959224		14.45154190		0.50626810		-0.00093882		 0.00001174		 0.00018399
O		8.17859310		10.58867149		0.50626810		-0.00080104		 0.00011203		 0.00011328
O		0.30528678		6.10480377		4.59723617		 0.00080104		-0.00011203		-0.00011328
O		0.30528678		10.58867149		4.59723617		 0.00080104		 0.00011203		-0.00011328
O		8.17859310		6.10480377		0.50626810		-0.00080104		-0.00011203		 0.00011328
Ca		-0.66706043		4.63410865		2.55175213		0.00000000		 0.00057771		0.00000000
Ca		-0.66706043		12.05936662		2.55175213		0.00000000		-0.00057771		0.00000000
Ca		4.24193944		12.98084677		2.55175213		0.00000000		 0.00048576		0.00000000
Ca		4.24193944		3.71262850		2.55175213		0.00000000		-0.00048576		0.00000000
Mg		0.00000000		0.00000000		0.00000000		0.00000000		0.00000000		0.00000000
Mg		4.90899987		8.34673812		0.00000000		0.00000000		0.00000000		0.00000000
Mg		0.00000000		2.94806748		0.00000000		0.00000000		 0.00056525		0.00000000
Mg		0.00000000		13.74540779		0.00000000		0.00000000		-0.00056525		0.00000000
Mg		4.90899987		11.29480462		0.00000000		0.00000000		 0.00049178		0.00000000
Mg		4.90899987		5.39866967		0.00000000		0.00000000		-0.00049178		0.00000000
Mg		-0.66706043		1.46568697		2.55175213		0.00000000		 0.00011043		0.00000000
Mg		-0.66706043		15.22778732		2.55175213		0.00000000		-0.00011043		0.00000000
Mg		4.24193944		9.81242607		2.55175213		0.00000000		 0.00009952		0.00000000
Mg		4.24193944		6.88105116		2.55175213		0.00000000		-0.00009952		0.00000000
H		0.92650893		0.00000000		3.92969760		 0.00069519		0.00000000		 0.00013991
H		7.55736996		0.00000000		1.17380569		-0.00069519		0.00000000		-0.00013991
H		5.83550880		8.34673812		3.92969760		 0.00050629		0.00000000		 0.00009776
H		2.64837009		8.34673812		1.17380569		-0.00050629		0.00000000		-0.00009776
