# total energy = -34531.6868816 eV

CRYSTAL
PRIMVEC
		9.34399986		0.00000000		0.00000000
		0.00000000		5.30799928		0.00000000
		-0.48050585		0.00000000		13.94537783
PRIMECORD
   56 1
Si		1.25702494		2.54146985		5.06370601		-0.00011393		 0.00016979		-0.00008122
Si		7.60647094		2.76653036		8.88167089		 0.00011393		-0.00016979		 0.00008122
Si		7.84672293		2.54146985		1.90898197		 0.00011833		 0.00015704		 0.00004561
Si		1.01677295		2.76653036		12.03639399		-0.00011833		-0.00015704		-0.00004561
Si		5.92902487		5.19546949		5.06370601		-0.00011388		 0.00016995		-0.00008120
Si		2.93447101		0.11252979		8.88167089		 0.00011388		-0.00016995		 0.00008120
Si		3.17472300		5.19546949		1.90898197		 0.00011817		 0.00015716		 0.00004555
Si		5.68877288		0.11252979		12.03639399		-0.00011817		-0.00015716		-0.00004555
Mg		4.43174794		2.65399964		6.97268798		0.00000000		0.00000000		0.00000000
Mg		4.67199993		2.65399964		0.00000000		0.00000000		0.00000000		0.00000000
Mg		-0.24025199		0.00000000		6.97268798		0.00000000		0.00000000		0.00000000
Mg		0.00000000		0.00000000		0.00000000		0.00000000		0.00000000		0.00000000
O		0.46208042		1.13431953		5.21975361		-0.00024824		 0.00017109		 0.00002667
O		8.40141453		4.17367974		8.72562142		 0.00024824		-0.00017109		-0.00002667
O		8.64166745		1.13431953		1.75293437		 0.00024625		 0.00017648		-0.00002272
O		0.22182843		4.17367974		12.19244253		-0.00024625		-0.00017648		 0.00002272
O		5.13408034		3.78832011		5.21975361		-0.00024807		 0.00017118		 0.00002665
O		3.72941553		1.51968010		8.72562142		 0.00024807		-0.00017118		-0.00002665
O		3.96966752		3.78832011		1.75293437		 0.00024641		 0.00017646		-0.00002310
O		4.89382835		1.51968010		12.19244253		-0.00024641		-0.00017646		 0.00002310
O		2.66276525		2.43743375		5.91981168		 0.00005741		-0.00023346		-0.00003020
O		6.20072970		2.87056552		8.02556428		-0.00005741		 0.00023346		 0.00003020
O		6.44098262		2.43743375		1.05287630		-0.00005083		-0.00023350		 0.00003899
O		2.42251326		2.87056552		12.89249967		 0.00005083		 0.00023350		-0.00003899
O		7.33476517		5.09143433		5.91981168		 0.00005747		-0.00023325		-0.00003043
O		1.52873070		0.21656588		8.02556428		-0.00005747		 0.00023325		 0.00003043
O		1.76898269		5.09143433		1.05287630		-0.00005062		-0.00023357		 0.00003904
O		7.09451318		0.21656588		12.89249967		 0.00005062		 0.00023357		-0.00003904
O		0.40556510		3.65933460		5.93794091		-0.00008192		 0.00028125		-0.00041932
O		8.45793078		1.64866468		8.00743599		 0.00008192		-0.00028125		 0.00041932
O		8.69818277		3.65933460		1.03474707		 0.00007874		 0.00027805		 0.00042488
O		0.16531218		1.64866468		12.91062890		-0.00007874		-0.00027805		-0.00042488
O		5.07756409		1.00533496		5.93794091		-0.00008215		 0.00028113		-0.00041925
O		3.78593085		4.30266525		8.00743599		 0.00008215		-0.00028113		 0.00041925
O		4.02618284		1.00533496		1.03474707		 0.00007886		 0.00027803		 0.00042485
O		4.83731210		4.30266525		12.91062890		-0.00007886		-0.00027803		-0.00042485
O		1.45510185		3.11208082		3.51841774		-0.00051369		 0.00014529		-0.00012242
O		7.40839402		2.19592032		10.42695823		 0.00051369		-0.00014529		 0.00012242
O		7.64864601		3.11208082		3.45427024		 0.00050823		 0.00015453		 0.00014768
O		1.21484893		2.19592032		10.49110665		-0.00050823		-0.00015453		-0.00014768
O		6.12710085		0.45808025		3.51841774		-0.00051354		 0.00014518		-0.00012248
O		2.73639410		4.84991996		10.42695823		 0.00051354		-0.00014518		 0.00012248
O		2.97664609		0.45808025		3.45427024		 0.00050818		 0.00015462		 0.00014762
O		5.88684886		4.84991996		10.49110665		-0.00050818		-0.00015462		-0.00014762
Ca		1.59139157		2.54783965		1.24699603		 0.00070884		 0.00050934		-0.00000667
Ca		7.27210244		2.76015962		12.69837994		-0.00070884		-0.00050934		 0.00000667
Ca		7.51235443		2.54783965		5.72569289		-0.00071035		 0.00050784		 0.00000196
Ca		1.35113958		2.76015962		8.21968401		 0.00071035		-0.00050784		-0.00000196
Ca		6.26339149		5.20184023		1.24699603		 0.00070878		 0.00050932		-0.00000688
Ca		2.60010251		0.10615999		12.69837994		-0.00070878		-0.00050932		 0.00000688
Ca		2.84035450		5.20184023		5.72569289		-0.00071010		 0.00050819		 0.00000173
Ca		6.02313950		0.10615999		8.21968401		 0.00071010		-0.00050819		-0.00000173
Ca		-0.12012646		4.93166314		3.48634352		 0.00000026		 0.00059075		-0.00000291
Ca		-0.36037845		0.37633707		10.45903151		-0.00000026		-0.00059075		 0.00000291
Ca		4.55187347		2.27766257		3.48634352		-0.00000016		 0.00059055		-0.00000310
Ca		4.31162148		3.03033671		10.45903151		 0.00000016		-0.00059055		 0.00000310
