# total energy = -34530.9489258 eV

CRYSTAL
PRIMVEC
		9.34399986		0.00000000		0.00000000
		0.00000000		5.30799928		0.00000000
		-0.48050585		0.00000000		14.27740752
PRIMECORD
   56 1
Si		1.25702494		2.54146985		5.18426977		 0.00019982		 0.00007166		 0.00005505
Si		7.60647094		2.76653036		9.09313869		-0.00019982		-0.00007166		-0.00005505
Si		7.84672293		2.54146985		1.95443399		-0.00019949		 0.00007180		-0.00005455
Si		1.01677295		2.76653036		12.32297447		 0.00019949		-0.00007180		 0.00005455
Si		5.92902487		5.19546949		5.18426977		 0.00019949		 0.00007155		 0.00005485
Si		2.93447101		0.11252979		9.09313869		-0.00019949		-0.00007155		-0.00005485
Si		3.17472300		5.19546949		1.95443399		-0.00019982		 0.00007181		-0.00005467
Si		5.68877288		0.11252979		12.32297447		 0.00019982		-0.00007181		 0.00005467
Mg		4.43174794		2.65399964		7.13870470		0.00000000		0.00000000		0.00000000
Mg		4.67199993		2.65399964		0.00000000		0.00000000		0.00000000		0.00000000
Mg		-0.24025199		0.00000000		7.13870470		0.00000000		0.00000000		0.00000000
Mg		0.00000000		0.00000000		0.00000000		0.00000000		0.00000000		0.00000000
O		0.46208042		1.13431953		5.34403348		 0.00037173		 0.00030102		-0.00008207
O		8.40141453		4.17367974		8.93337498		-0.00037173		-0.00030102		 0.00008207
O		8.64166745		1.13431953		1.79467028		-0.00037170		 0.00030066		 0.00008184
O		0.22182843		4.17367974		12.48273911		 0.00037170		-0.00030066		-0.00008184
O		5.13408034		3.78832011		5.34403348		 0.00037144		 0.00030101		-0.00008190
O		3.72941553		1.51968010		8.93337498		-0.00037144		-0.00030101		 0.00008190
O		3.96966752		3.78832011		1.79467028		-0.00037183		 0.00030080		 0.00008179
O		4.89382835		1.51968010		12.48273911		 0.00037183		-0.00030080		-0.00008179
O		2.66276525		2.43743375		6.06076032		-0.00041068		 0.00010820		 0.00006034
O		6.20072970		2.87056552		8.21664908		 0.00041068		-0.00010820		-0.00006034
O		6.44098262		2.43743375		1.07794531		 0.00041080		 0.00010815		-0.00006047
O		2.42251326		2.87056552		13.19946408		-0.00041080		-0.00010815		 0.00006047
O		7.33476517		5.09143433		6.06076032		-0.00041093		 0.00010816		 0.00005989
O		1.52873070		0.21656588		8.21664908		 0.00041093		-0.00010816		-0.00005989
O		1.76898269		5.09143433		1.07794531		 0.00041055		 0.00010821		-0.00006081
O		7.09451318		0.21656588		13.19946408		-0.00041055		-0.00010821		 0.00006081
O		0.40556510		3.65933460		6.07932124		 0.00062216		 0.00008001		 0.00000205
O		8.45793078		1.64866468		8.19808909		-0.00062216		-0.00008001		-0.00000205
O		8.69818277		3.65933460		1.05938439		-0.00062193		 0.00008005		-0.00000227
O		0.16531218		1.64866468		13.21802500		 0.00062193		-0.00008005		 0.00000227
O		5.07756409		1.00533496		6.07932124		 0.00062199		 0.00007993		 0.00000194
O		3.78593085		4.30266525		8.19808909		-0.00062199		-0.00007993		-0.00000194
O		4.02618284		1.00533496		1.05938439		-0.00062197		 0.00007986		-0.00000229
O		4.83731210		4.30266525		13.21802500		 0.00062197		-0.00007986		 0.00000229
O		1.45510185		3.11208082		3.60218950		 0.00037311		-0.00043906		-0.00015654
O		7.40839402		2.19592032		10.67521802		-0.00037311		 0.00043906		 0.00015654
O		7.64864601		3.11208082		3.53651426		-0.00037275		-0.00043828		 0.00015585
O		1.21484893		2.19592032		10.74089513		 0.00037275		 0.00043828		-0.00015585
O		6.12710085		0.45808025		3.60218950		 0.00037298		-0.00043841		-0.00015646
O		2.73639410		4.84991996		10.67521802		-0.00037298		 0.00043841		 0.00015646
O		2.97664609		0.45808025		3.53651426		-0.00037282		-0.00043865		 0.00015580
O		5.88684886		4.84991996		10.74089513		 0.00037282		 0.00043865		-0.00015580
Ca		1.59139157		2.54783965		1.27668565		 0.00022182		 0.00023324		 0.00057098
Ca		7.27210244		2.76015962		13.00072281		-0.00022182		-0.00023324		-0.00057098
Ca		7.51235443		2.54783965		5.86201905		-0.00022182		 0.00023323		-0.00057019
Ca		1.35113958		2.76015962		8.41539128		 0.00022182		-0.00023323		 0.00057019
Ca		6.26339149		5.20184023		1.27668565		 0.00022181		 0.00023315		 0.00057100
Ca		2.60010251		0.10615999		13.00072281		-0.00022181		-0.00023315		-0.00057100
Ca		2.84035450		5.20184023		5.86201905		-0.00022175		 0.00023350		-0.00057020
Ca		6.02313950		0.10615999		8.41539128		 0.00022175		-0.00023350		 0.00057020
Ca		-0.12012646		4.93166314		3.56935188		-0.00000035		 0.00020822		 0.00000046
Ca		-0.36037845		0.37633707		10.70805658		 0.00000035		-0.00020822		-0.00000046
Ca		4.55187347		2.27766257		3.56935188		 0.00000033		 0.00020830		 0.00000111
Ca		4.31162148		3.03033671		10.70805658		-0.00000033		-0.00020830		-0.00000111
