# total energy = -10313.7043158 eV

CRYSTAL
PRIMVEC
		3.77324987		0.00000000		0.00000000
		0.00000000		3.51000155		0.00000000
		0.00000000		0.00000000		10.45000042
PRIMECORD
   14 1
Si		0.00000000		0.00000000		0.00000000		0.00000000		0.00000000		0.00000000
Si		1.88662493		1.75500002		5.22499983		0.00000000		0.00000000		0.00000000
Mg		0.00000000		0.00000000		3.90829976		0.00000000		0.00000000		-0.00061052
Mg		0.00000000		0.00000000		6.54169990		0.00000000		0.00000000		 0.00061052
Mg		1.88662493		1.75500002		9.13329960		0.00000000		0.00000000		-0.00039721
Mg		1.88662493		1.75500002		1.31670007		0.00000000		0.00000000		 0.00039721
O		0.00000000		1.75500002		0.00000000		0.00000000		0.00000000		0.00000000
O		1.88662493		0.00000000		0.00000000		0.00000000		0.00000000		0.00000000
O		1.88662493		0.00000000		5.22499983		0.00000000		0.00000000		0.00000000
O		0.00000000		1.75500002		5.22499983		0.00000000		0.00000000		0.00000000
O		0.00000000		0.00000000		1.72111510		0.00000000		0.00000000		-0.00084641
O		0.00000000		0.00000000		8.72888456		0.00000000		0.00000000		 0.00084641
O		1.88662493		1.75500002		6.94611494		0.00000000		0.00000000		-0.00071343
O		1.88662493		1.75500002		3.50388473		0.00000000		0.00000000		 0.00071343
