# total energy = -7658.00803997 eV

CRYSTAL
PRIMVEC
		5.54069813		-0.44325474		0.00000000
		-3.15422062		5.02001485		0.00000000
		0.00000000		0.00000000		4.84350225
PRIMECORD
   15 1
Mg		0.00000000		0.00000000		0.00000000		0.00000000		0.00000000		0.00000000
Mg		-0.25591381		3.19892462		0.05279425		 0.00051974		 0.00042716		 0.00060823
Mg		2.64239299		1.37783383		4.79070577		-0.00051974		-0.00042716		-0.00060823
O		0.78466400		1.53249191		1.06557005		-0.00031528		 0.00009448		-0.00047241
O		1.60181518		3.04426710		3.77792998		 0.00031528		-0.00009448		 0.00047241
O		0.54044673		4.71252185		1.06557005		 0.00008126		-0.00082151		-0.00043029
O		1.84603301		-0.13576285		3.77792998		-0.00008126		 0.00082151		 0.00043029
O		-2.09285161		3.35175954		1.06557005		 0.00049244		 0.00040455		 0.00025712
O		4.47933078		1.22499891		3.77792998		-0.00049244		-0.00040455		-0.00025712
H		0.65186211		1.61320101		2.04395713		 0.00032444		-0.00027258		 0.00047186
H		1.73461707		2.96355799		2.79954290		-0.00032444		 0.00027258		-0.00047186
H		0.55457118		4.56693175		2.04395713		-0.00037512		 0.00005367		 0.00089101
H		1.83190800		0.00982725		2.79954290		 0.00037512		-0.00005367		-0.00089101
H		-1.97417473		3.41664054		2.04395713		-0.00017567		 0.00017508		-0.00014474
H		4.36065391		1.16011791		2.79954290		 0.00017567		-0.00017508		 0.00014474
