# total energy = -7656.91852636 eV

CRYSTAL
PRIMVEC
		5.54070206		0.88651480		0.00000000
		-2.00261073		4.35512858		0.00000000
		0.00000000		0.00000000		4.84350262
PRIMECORD
   15 1
Mg		0.00000000		0.00000000		0.00000000		0.00000000		0.00000000		0.00000000
Mg		0.51182817		3.19892511		0.05279384		 0.00028318		-0.00041101		 0.00040975
Mg		3.02626427		2.04271827		4.79070597		-0.00028318		 0.00041101		-0.00040975
O		1.16999405		1.75163700		1.06557013		-0.00057972		-0.00010070		-0.00015780
O		2.36809784		3.49000582		3.77793024		 0.00057972		 0.00010070		 0.00015780
O		1.68918016		4.93412811		1.06557013		 0.00010942		 0.00059682		 0.00027116
O		1.84891173		0.30751527		3.77793024		-0.00010942		-0.00059682		-0.00027116
O		-1.32369025		2.91100798		1.06557013		-0.00069648		 0.00038295		-0.00049801
O		4.86178213		2.33063484		3.77793024		 0.00069648		-0.00038295		 0.00049801
H		1.05412109		1.80182782		2.04395722		 0.00035935		-0.00027834		-0.00064132
H		2.48397080		3.43981500		2.79954315		-0.00035935		 0.00027834		 0.00064132
H		1.66841096		4.78913596		2.04395722		-0.00003253		-0.00048271		 0.00026691
H		1.86968092		0.45250686		2.79954315		 0.00003253		 0.00048271		-0.00026691
H		-1.18704809		3.00580987		2.04395722		-0.00028928		-0.00014418		 0.00018499
H		4.72513998		2.23583295		2.79954315		 0.00028928		 0.00014418		-0.00018499
