# total energy = -34531.8113273 eV	

CRYSTAL	
PRIMVEC	
		9.11039987		0.00000000		0.00000000	
		0.00000000		5.30800139		0.00000000	
		-0.46849320		0.00000000		13.28131403	
PRIMCOORD
   56 1	
Si		1.22559932		2.54146995		4.82257651		 0.00085471		 0.00029372		 0.00008986	
Si		7.41630917		2.76652962		8.45873388		-0.00085471		-0.00029372		-0.00008986	
Si		7.65055486		2.54146995		1.81807869		-0.00086208		 0.00040419		 0.00022913	
Si		0.99135363		2.76652962		11.46323170		 0.00086208		-0.00040419		-0.00022913	
Si		5.78080017		5.19546973		4.82257651		 0.00085658		 0.00029456		 0.00008894	
Si		2.86110924		0.11252984		8.45873388		-0.00085658		-0.00029456		-0.00008894	
Si		3.09535493		5.19546973		1.81807869		-0.00086215		 0.00040385		 0.00022829	
Si		5.54655356		0.11252984		11.46323170		 0.00086215		-0.00040385		-0.00022829	
Mg		4.32095425		2.65399978		6.64065519		0.00000000		0.00000000		0.00000000	
Mg		4.55519994		2.65399978		0.00000000		0.00000000		0.00000000		0.00000000	
Mg		-0.23424569		0.00000000		6.64065519		0.00000000		0.00000000		0.00000000	
Mg		0.00000000		0.00000000		0.00000000		0.00000000		0.00000000		0.00000000	
O		0.45052841		1.13432040		4.97119537		 0.00019414		 0.00080795		-0.00043594	
O		8.19138009		4.17368008		8.31011593		-0.00019414		-0.00080795		 0.00043594	
O		8.42562578		1.13432040		1.66946073		-0.00016969		 0.00076249		 0.00039166	
O		0.21628180		4.17368008		11.61184965		 0.00016969		-0.00076249		-0.00039166	
O		5.00572834		3.78832018		4.97119537		 0.00019348		 0.00080716		-0.00043582	
O		3.63618015		1.51968029		8.31011593		-0.00019348		-0.00080716		 0.00043582	
O		3.87042584		3.78832018		1.66946073		-0.00016987		 0.00076260		 0.00039172	
O		4.77148174		1.51968029		11.61184965		 0.00016987		-0.00076260		-0.00039172	
O		2.59619612		2.43743373		5.63791630		 0.00040933		-0.00055549		 0.00025666	
O		6.04571146		2.87056583		7.64339409		-0.00040933		 0.00055549		-0.00025666	
O		6.27995806		2.43743373		1.00273890		-0.00049002		-0.00056473		-0.00032445	
O		2.36194952		2.87056583		12.27857149		 0.00049002		 0.00056473		 0.00032445	
O		7.15139605		5.09143352		5.63791630		 0.00040824		-0.00055543		 0.00025622	
O		1.49051153		0.21656605		7.64339409		-0.00040824		 0.00055543		-0.00025622	
O		1.72475813		5.09143352		1.00273890		-0.00048963		-0.00056455		-0.00032415	
O		6.91714945		0.21656605		12.27857149		 0.00048963		 0.00056455		 0.00032415	
O		0.39542506		3.65933514		5.65518233		 0.00047535		-0.00034040		 0.00012423	
O		8.24648252		1.64866534		7.62612897		-0.00047535		 0.00034040		-0.00012423	
O		8.48072912		3.65933514		0.98547287		-0.00044658		-0.00030778		-0.00017361	
O		0.16118028		1.64866534		12.29583661		 0.00044658		 0.00030778		 0.00017361	
O		4.95062500		1.00533536		5.65518233		 0.00047495		-0.00034003		 0.00012480	
O		3.69128258		4.30266512		7.62612897		-0.00047495		 0.00034003		-0.00012480	
O		3.92552918		1.00533536		0.98547287		-0.00044651		-0.00030793		-0.00017340	
O		4.71637931		4.30266512		12.29583661		 0.00044651		 0.00030793		 0.00017340	
O		1.41872431		3.11208071		3.35087522		-0.00032473		 0.00022368		-0.00037761	
O		7.22318418		2.19591977		9.93043608		 0.00032473		-0.00022368		 0.00037761	
O		7.45742987		3.11208071		3.28978088		 0.00035412		 0.00015283		 0.00014024	
O		1.18447771		2.19591977		9.99152951		-0.00035412		-0.00015283		-0.00014024	
O		5.97392424		0.45808002		3.35087522		-0.00032506		 0.00022339		-0.00037675	
O		2.66798516		4.84991955		9.93043608		 0.00032506		-0.00022339		 0.00037675	
O		2.90222994		0.45808002		3.28978088		 0.00035396		 0.00015305		 0.00014085	
O		5.73967764		4.84991955		9.99152951		-0.00035396		-0.00015305		-0.00014085	
Ca		1.55160678		2.54783994		1.18761533		-0.00014346		 0.00069560		 0.00049163	
Ca		7.09030080		2.76015963		12.09369597		 0.00014346		-0.00069560		-0.00049163	
Ca		7.32454558		2.54783994		5.45304078		 0.00014318		 0.00069810		-0.00044779	
Ca		1.31736200		2.76015963		7.82826961		-0.00014318		-0.00069810		 0.00044779	
Ca		6.10680763		5.20183972		1.18761533		-0.00014342		 0.00069564		 0.00049163	
Ca		2.53510087		0.10615985		12.09369597		 0.00014342		-0.00069564		-0.00049163	
Ca		2.76934656		5.20183972		5.45304078		 0.00014296		 0.00069824		-0.00044792	
Ca		5.87256194		0.10615985		7.82826961		-0.00014296		-0.00069824		 0.00044792	
Ca		-0.11712330		4.93166261		3.32032805		-0.00000107		 0.00016371		 0.00002540	
Ca		-0.35136899		0.37633695		9.96098325		 0.00000107		-0.00016371		-0.00002540	
Ca		4.43807664		2.27766283		3.32032805		-0.00000086		 0.00016357		 0.00002533	
Ca		4.20383095		3.03033674		9.96098325		 0.00000086		-0.00016357		-0.00002533	
