# total energy = -34530.2911608 eV	

CRYSTAL	
PRIMVEC	
		10.27839979		0.00000000		0.00000000	
		0.00000000		5.30800205		0.00000000	
		-0.52855643		0.00000000		13.28130624	
PRIMCOORD
   56 1	
Si		1.38272743		2.54147002		4.82257687		-0.00041758		 0.00025193		 0.00023184	
Si		8.36711799		2.76652998		8.45873347		 0.00041758		-0.00025193		-0.00023184	
Si		8.63139517		2.54147002		1.81807933		 0.00038987		 0.00041093		 0.00025062	
Si		1.11845024		2.76652998		11.46323205		-0.00038987		-0.00041093		-0.00025062	
Si		6.52192835		5.19547002		4.82257687		-0.00041599		 0.00025073		 0.00023622	
Si		3.22791809		0.11252998		8.45873347		 0.00041599		-0.00025073		-0.00023622	
Si		3.49219528		5.19547002		1.81807933		 0.00038825		 0.00041000		 0.00024655	
Si		6.25765013		0.11252998		11.46323205		-0.00038825		-0.00041000		-0.00024655	
Mg		4.87492271		2.65400000		6.64065517		0.00000000		0.00000000		0.00000000	
Mg		5.13919989		2.65400000		0.00000000		0.00000000		0.00000000		0.00000000	
Mg		-0.26427719		0.00000000		6.64065517		0.00000000		0.00000000		0.00000000	
Mg		0.00000000		0.00000000		0.00000000		0.00000000		0.00000000		0.00000000	
O		0.50828845		1.13432009		4.97119534		-0.00013212		 0.00025431		 0.00023579	
O		9.24155696		4.17367991		8.31011604		 0.00013212		-0.00025431		-0.00023579	
O		9.50583415		1.13432009		1.66946086		 0.00015246		 0.00018984		-0.00029613	
O		0.24401127		4.17367991		11.61184948		-0.00015246		-0.00018984		 0.00029613	
O		5.64748835		3.78832009		4.97119534		-0.00012604		 0.00025169		 0.00023693	
O		4.10235707		1.51967991		8.31011604		 0.00012604		-0.00025169		-0.00023693	
O		4.36663425		3.78832009		1.66946086		 0.00014632		 0.00018723		-0.00029731	
O		5.38321116		1.51967991		11.61184948		-0.00014632		-0.00018723		 0.00029731	
O		2.92904175		2.43743412		5.63791607		 0.00022412		 0.00038621		 0.00067536	
O		6.82080366		2.87056588		7.64339427		-0.00022412		-0.00038621		-0.00067536	
O		7.08508085		2.43743412		1.00273910		-0.00028126		 0.00037982		-0.00074161	
O		2.66476354		2.87056588		12.27857125		 0.00028126		-0.00037982		 0.00074161	
O		8.06824165		5.09143411		5.63791607		 0.00022871		 0.00039247		 0.00067701	
O		1.68160376		0.21656588		7.64339427		-0.00022871		-0.00039247		-0.00067701	
O		1.94588095		5.09143411		1.00273910		-0.00028575		 0.00038613		-0.00074322	
O		7.80396343		0.21656588		12.27857125		 0.00028575		-0.00038613		 0.00074322	
O		0.44612058		3.65933542		5.65518173		-0.00010227		-0.00001134		 0.00055250	
O		9.30372380		1.64866458		7.62612862		 0.00010227		 0.00001134		-0.00055250	
O		9.56800202		3.65933542		0.98547344		 0.00014275		 0.00002092		-0.00061747	
O		0.18184442		1.64866458		12.29583690		-0.00014275		-0.00002092		 0.00061747	
O		5.58532048		1.00533542		5.65518173		-0.00010128		-0.00001517		 0.00055793	
O		4.16452391		4.30266458		7.62612862		 0.00010128		 0.00001517		-0.00055793	
O		4.42880213		1.00533542		0.98547344		 0.00014186		 0.00001717		-0.00062305	
O		5.32104432		4.30266458		12.29583690		-0.00014186		-0.00001717		 0.00062305	
O		1.60061203		3.11208053		3.35087448		 0.00040534		 0.00032699		-0.00075910	
O		8.14923338		2.19591947		9.93043587		-0.00040534		-0.00032699		 0.00075910	
O		8.41351057		3.11208053		3.28978070		-0.00037059		 0.00022515		 0.00037279	
O		1.33633381		2.19591947		9.99152965		 0.00037059		-0.00022515		-0.00037279	
O		6.73981090		0.45807950		3.35087448		 0.00039786		 0.00032034		-0.00075678	
O		3.01003349		4.84991947		9.93043587		-0.00039786		-0.00032034		 0.00075678	
O		3.27431068		0.45807950		3.28978070		-0.00036300		 0.00021841		 0.00037017	
O		6.47553371		4.84991947		9.99152965		 0.00036300		-0.00021841		-0.00037017	
Ca		1.75053174		2.54783955		1.18761462		-0.00078597		 0.00021275		 0.00070220	
Ca		7.99931367		2.76016045		12.09369573		 0.00078597		-0.00021275		-0.00070220	
Ca		8.26359086		2.54783955		5.45304055		 0.00078547		 0.00021438		-0.00062796	
Ca		1.48625353		2.76016045		7.82826979		-0.00078547		-0.00021438		 0.00062796	
Ca		6.88973164		5.20183955		1.18761462		-0.00078138		 0.00021675		 0.00070397	
Ca		2.86011378		0.10616045		12.09369573		 0.00078138		-0.00021675		-0.00070397	
Ca		3.12439097		5.20183955		5.45304055		 0.00078092		 0.00021831		-0.00062970	
Ca		6.62545342		0.10616045		7.82826979		-0.00078092		-0.00021831		 0.00062970	
Ca		-0.13213911		4.93166256		3.32032810		-0.00000354		-0.00061751		 0.00004281	
Ca		-0.39641630		0.37633744		9.96098327		 0.00000354		 0.00061751		-0.00004281	
Ca		5.00706079		2.27766256		3.32032810		-0.00000360		-0.00061847		 0.00004290	
Ca		4.74278360		3.03033744		9.96098327		 0.00000360		 0.00061847		-0.00004290	
