# total energy = -34527.5030462 eV	

CRYSTAL	
PRIMVEC	
		9.34399986		0.00000000		0.00000000	
		0.00000000		5.30799928		0.63696178	
		-0.48050585		1.59375934		13.28130911	
PRIMCOORD
   56 1	
Si		1.25702494		3.12018020		5.12755262		-0.00041584		-0.00020590		 0.00038524	
Si		7.60647094		3.78157748		8.79071733		 0.00041584		 0.00020590		-0.00038524	
Si		7.84672293		2.75964010		2.12305488		-0.00009078		 0.00018887		 0.00066078	
Si		1.01677295		4.14211758		11.79521601		 0.00009078		-0.00018887		-0.00066078	
Si		5.92902487		5.77417984		5.44603258		-0.00022402		-0.00016437		 0.00038789	
Si		2.93447101		1.12757784		8.47223644		 0.00022402		 0.00016437		-0.00038789	
Si		3.17472300		5.41363974		2.44153484		 0.00019441		 0.00034942		 0.00056785	
Si		5.68877288		1.48811701		11.47673605		-0.00019441		-0.00034942		-0.00056785	
Mg		4.43174794		3.45087931		6.95913451		0.00000000		0.00000000		0.00000000	
Mg		4.67199993		2.65399964		0.31847996		0.00000000		0.00000000		0.00000000	
Mg		-0.24025199		0.79687873		6.64065455		0.00000000		0.00000000		0.00000000	
Mg		0.00000000		0.00000000		0.00000000		0.00000000		0.00000000		0.00000000	
O		0.46208042		1.73086291		5.10731259		 0.00017296		 0.00035715		 0.00028003	
O		8.40141453		5.17089383		8.81095830		-0.00017296		-0.00035715		-0.00028003	
O		8.64166745		1.33465489		1.80557940		-0.00026917		 0.00050474		 0.00059141	
O		0.22182843		5.56710185		12.11269149		 0.00026917		-0.00050474		-0.00059141	
O		5.13408034		4.38486255		5.42579254		 0.00012784		 0.00026879		 0.00031532	
O		3.72941553		2.51689419		8.49247741		-0.00012784		-0.00026879		-0.00031532	
O		3.96966752		3.98865453		2.12405936		-0.00029016		 0.00048433		 0.00060144	
O		4.89382835		2.91310221		11.79421153		 0.00029016		-0.00048433		-0.00060144	
O		2.66276525		3.11398420		5.93040778		 0.00004596		-0.00002266		 0.00050922	
O		6.20072970		3.78777348		7.98786217		-0.00004596		 0.00002266		-0.00050922	
O		6.44098262		2.55776205		1.29523069		 0.00059906		-0.00017020		 0.00027951	
O		2.42251326		4.34399470		12.62304020		-0.00059906		 0.00017020		-0.00027951	
O		7.33476517		5.76798383		6.24888774		-0.00010830		-0.00003162		 0.00047485	
O		1.52873070		1.13377384		7.66938222		 0.00010830		 0.00003162		-0.00047485	
O		1.76898269		5.21176262		1.61371064		 0.00046666		-0.00018828		 0.00022180	
O		7.09451318		1.68999506		12.30456025		-0.00046666		 0.00018828		-0.00022180	
O		0.40556510		4.33795661		6.09430154		 0.00065132		-0.00041556		 0.00061419	
O		8.45793078		2.56380014		7.82396842		-0.00065132		 0.00041556		-0.00061419	
O		8.69818277		3.77759226		1.42459369		 0.00018266		 0.00054920		 0.00042326	
O		0.16531218		3.12416542		12.49367720		-0.00018266		-0.00054920		-0.00042326	
O		5.07756409		1.68395697		5.77582158		 0.00062240		-0.00037495		 0.00063812	
O		3.78593085		5.21779978		8.14244931		-0.00062240		 0.00037495		-0.00063812	
O		4.02618284		1.12359169		1.10611374		 0.00001327		 0.00040353		 0.00054212	
O		4.83731210		5.77816506		12.81215715		-0.00001327		-0.00040353		-0.00054212	
O		1.45510185		3.51418491		3.72432399		 0.00021594		 0.00048855		-0.00042237	
O		7.40839402		3.38757184		10.19394597		-0.00021594		-0.00048855		 0.00042237	
O		7.64864601		3.50685360		3.66323011		-0.00063213		-0.00034401		 0.00072130	
O		1.21484893		3.39490314		10.25504078		 0.00063213		 0.00034401		-0.00072130	
O		6.12710085		0.86018527		3.40584403		 0.00019668		 0.00050819		-0.00043933	
O		2.73639410		6.04157148		10.51242592		-0.00019668		-0.00050819		 0.00043933	
O		2.97664609		0.85285396		3.34475016		-0.00064156		-0.00032596		 0.00074028	
O		5.88684886		6.04890278		10.57352073		 0.00064156		 0.00032596		-0.00074028	
Ca		1.59139157		2.69035434		1.49335619		 0.00004315		 0.00007963		 0.00020390	
Ca		7.27210244		4.21140334		12.42491470		-0.00004315		-0.00007963		-0.00020390	
Ca		7.51235443		3.20220464		5.75878093		-0.00019828		-0.00044510		-0.00081383	
Ca		1.35113958		3.69955211		8.15948996		 0.00019828		 0.00044510		 0.00081383	
Ca		6.26339149		5.34435398		1.81183614		 0.00001517		 0.00008372		 0.00020264	
Ca		2.60010251		1.55740370		12.10643474		-0.00001517		-0.00008372		-0.00020264	
Ca		2.84035450		5.85620521		6.07726182		-0.00020579		-0.00044726		-0.00080603	
Ca		6.02313950		1.04555340		7.84101000		 0.00020579		 0.00044726		 0.00080603	
Ca		-0.12012646		5.33010158		3.91212717		-0.00022115		 0.00032538		-0.00034575	
Ca		-0.36037845		1.57165517		10.00614372		 0.00022115		-0.00032538		 0.00034575	
Ca		4.55187347		2.67610194		3.59364721		-0.00019047		 0.00032280		-0.00035570	
Ca		4.31162148		4.22565481		10.32462367		 0.00019047		-0.00032280		 0.00035570	
