# total energy = -34531.3627705 eV	

CRYSTAL	
PRIMVEC	
		9.34399986		0.00000000		0.00000000	
		0.00000000		5.30799928		-0.21232371	
		-0.48050585		-0.53125311		13.28130911	
PRIMCOORD
   56 1	
Si		1.25702494		2.34856671		4.72091764		-0.00019784		 0.00025724		-0.00001676	
Si		7.60647094		2.42818039		8.34807243		 0.00019784		-0.00025724		 0.00001676	
Si		7.84672293		2.46874737		1.71641989		 0.00065025		-0.00018380		 0.00002401	
Si		1.01677295		2.30799973		11.35257111		-0.00065025		 0.00018380		-0.00002401	
Si		5.92902487		5.00256728		4.61475765		-0.00020116		 0.00025705		-0.00001501	
Si		2.93447101		-0.22582018		8.45423242		 0.00020116		-0.00025705		 0.00001501	
Si		3.17472300		5.12274701		1.61025990		 0.00064792		-0.00017979		 0.00003144	
Si		5.68877288		-0.34599991		11.45873110		-0.00064792		 0.00017979		-0.00003144	
Mg		4.43174794		2.38837402		6.53449457		0.00000000		0.00000000		0.00000000	
Mg		4.67199993		2.65399964		-0.10615999		0.00000000		0.00000000		0.00000000	
Mg		-0.24025199		-0.26562562		6.64065455		0.00000000		0.00000000		0.00000000	
Mg		0.00000000		0.00000000		0.00000000		0.00000000		0.00000000		0.00000000	
O		0.46208042		0.93547174		4.92582221		 0.00007926		-0.00007137		 0.00075731	
O		8.40141453		3.84127629		8.14316880		-0.00007926		 0.00007137		-0.00075731	
O		8.64166745		1.06754077		1.62408809		 0.00001243		-0.00034412		-0.00058305	
O		0.22182843		3.70920633		11.44490291		-0.00001243		 0.00034412		 0.00058305	
O		5.13408034		3.58947232		4.81966222		 0.00008014		-0.00007061		 0.00075698	
O		3.72941553		1.18727572		8.24932878		-0.00008014		 0.00007061		-0.00075698	
O		3.96966752		3.72154134		1.51792810		 0.00001374		-0.00034645		-0.00058373	
O		4.89382835		1.05520576		11.55106290		-0.00001374		 0.00034645		 0.00058373	
O		2.66276525		2.21191725		5.54041913		-0.00055680		-0.00005381		 0.00047528	
O		6.20072970		2.56483078		7.52857188		 0.00055680		 0.00005381		-0.00047528	
O		6.44098262		2.39732370		0.90524203		 0.00093361		 0.00016980		 0.00007393	
O		2.42251326		2.37942340		12.16374897		-0.00093361		-0.00016980		-0.00007393	
O		7.33476517		4.86591689		5.43425914		-0.00055538		-0.00005391		 0.00047557	
O		1.52873070		-0.08916886		7.63473186		 0.00055538		 0.00005391		-0.00047557	
O		1.76898269		5.05132427		0.79908205		 0.00093365		 0.00016961		 0.00007350	
O		7.09451318		-0.27457624		12.26990896		-0.00093365		-0.00016961		-0.00007350	
O		0.40556510		3.43312758		5.50880931		 0.00046105		-0.00063637		 0.00008526	
O		8.45793078		1.34361952		7.56018169		-0.00046105		 0.00063637		-0.00008526	
O		8.69818277		3.61991600		0.83909960		 0.00014094		 0.00063402		-0.00016437	
O		0.16531218		1.15683110		12.22988954		-0.00014094		-0.00063402		 0.00016437	
O		5.07756409		0.77912794		5.61496930		 0.00046230		-0.00063740		 0.00008440	
O		3.78593085		3.99762010		7.45402171		-0.00046230		 0.00063740		-0.00008440	
O		4.02618284		0.96591636		0.94525958		 0.00014167		 0.00063460		-0.00016514	
O		4.83731210		3.81083074		12.12372955		-0.00014167		-0.00063460		 0.00016514	
O		1.45510185		2.97804582		3.22639064		 0.00045780		 0.00061581		-0.00021952	
O		7.40839402		1.79870222		9.84259849		-0.00045780		-0.00061581		 0.00021952	
O		7.64864601		2.98048927		3.16529770		-0.00020448		-0.00035229		-0.00050066	
O		1.21484893		1.79625783		9.90369423		 0.00020448		 0.00035229		 0.00050066	
O		6.12710085		0.32404618		3.33255063		 0.00045840		 0.00061612		-0.00022076	
O		2.73639410		4.45270186		9.73643851		-0.00045840		-0.00061612		 0.00022076	
O		2.97664609		0.32648870		3.27145769		-0.00020370		-0.00035411		-0.00050642	
O		5.88684886		4.45025747		9.79753425		 0.00020370		 0.00035411		 0.00050642	
Ca		1.59139157		2.50033476		1.08570083		 0.00052917		-0.00056490		 0.00094113	
Ca		7.27210244		2.27641234		11.98328924		-0.00052917		 0.00056490		-0.00094113	
Ca		7.51235443		2.32971799		5.35112651		 0.00039992		-0.00002754		 0.00034572	
Ca		1.35113958		2.44702911		7.71786356		-0.00039992		 0.00002754		-0.00034572	
Ca		6.26339149		5.15433627		0.97954085		 0.00052965		-0.00056473		 0.00094135	
Ca		2.60010251		-0.37758823		12.08944922		-0.00052965		 0.00056473		-0.00094135	
Ca		2.84035450		4.98371857		5.24496652		 0.00040040		-0.00002754		 0.00034552	
Ca		6.02313950		-0.20697053		7.82402355		-0.00040040		 0.00002754		-0.00034552	
Ca		-0.12012646		4.79885033		3.12306096		-0.00054891		-0.00052481		 0.00000216	
Ca		-0.36037845		-0.02210230		9.94593005		 0.00054891		 0.00052481		-0.00000216	
Ca		4.55187347		2.14484976		3.22922094		-0.00054950		-0.00052522		 0.00000245	
Ca		4.31162148		2.63189828		9.83977006		 0.00054950		 0.00052522		-0.00000245	
