# total energy = -66808.9232352 eV	

CRYSTAL	
PRIMVEC	
		16.96764358		0.00000000		0.00000000	
		0.00000000		6.73130175		0.00000000	
		0.00000000		0.00000000		10.88440400	
PRIMCOORD
   112 1	
Ca		13.10903175		6.72409729		2.52060963		 0.00026277		 0.00077566		 0.00002185	
Ca		3.85861183		0.00720276		8.36379098		-0.00026277		-0.00077566		-0.00002185	
Ca		3.85861183		0.00720276		2.52060963		-0.00026277		-0.00077566		 0.00002185	
Ca		13.10903175		6.72409729		8.36379098		 0.00026277		 0.00077566		-0.00002185	
Ca		12.34243361		3.35844642		2.92159068		-0.00026277		 0.00077566		-0.00002185	
Ca		4.62520996		3.37285364		7.96280993		 0.00026277		-0.00077566		 0.00002185	
Ca		4.62520996		3.37285364		2.92159068		 0.00026277		-0.00077566		-0.00002185	
Ca		12.34243361		3.35844642		7.96280993		-0.00026277		 0.00077566		 0.00002185	
Ca		6.98880271		1.06469079		8.14849704		 0.00004821		-0.00006122		 0.00016549	
Ca		9.97884086		5.66660927		2.73590357		-0.00004821		 0.00006122		-0.00016549	
Ca		9.97884086		5.66660927		8.14849704		-0.00004821		 0.00006122		 0.00016549	
Ca		6.98880271		1.06469079		2.73590357		 0.00004821		-0.00006122		-0.00016549	
Ca		1.49501908		4.43033997		8.17810218		-0.00004821		-0.00006122		-0.00016549	
Ca		15.47262620		2.30096009		2.70629673		 0.00004821		 0.00006122		 0.00016549	
Ca		15.47262620		2.30096009		8.17810218		 0.00004821		 0.00006122		-0.00016549	
Ca		1.49501908		4.43033997		2.70629673		-0.00004821		-0.00006122		 0.00016549	
Ca		5.64632275		5.40388736		0.00000000		 0.00032759		 0.00082955		-0.00000000	
Ca		11.32132082		1.32741269		0.00000000		-0.00032759		-0.00082955		-0.00000000	
Ca		2.83749904		2.03823818		5.44220030		-0.00032759		 0.00082955		0.00000000	
Ca		14.13014454		4.69306187		5.44220030		 0.00032759		-0.00082955		-0.00000000	
Ca		11.42397507		1.15643653		5.44220030		 0.00082492		 0.00052753		-0.00000000	
Ca		5.54366851		5.57486183		5.44220030		-0.00082492		-0.00052753		-0.00000000	
Ca		14.02749030		4.52208741		0.00000000		-0.00082492		 0.00052753		-0.00000000	
Ca		2.94015328		2.20921265		0.00000000		 0.00082492		-0.00052753		-0.00000000	
Ca		8.48382179		3.36564918		0.00000000		0.00000000		0.00000000		0.00000000	
Ca		0.00000000		0.00000000		5.44220030		0.00000000		0.00000000		0.00000000	
Ca		8.48382179		3.36564918		5.44220030		0.00000000		0.00000000		0.00000000	
Ca		0.00000000		0.00000000		0.00000000		0.00000000		0.00000000		0.00000000	
Si		7.11249683		4.84249761		8.18267326		 0.00024691		-0.00032217		-0.00007416	
Si		9.85514505		1.88880245		2.70172565		-0.00024691		 0.00032217		 0.00007416	
Si		9.85514505		1.88880245		8.18267326		-0.00024691		 0.00032217		-0.00007416	
Si		7.11249683		4.84249761		2.70172565		 0.00024691		-0.00032217		 0.00007416	
Si		1.37132495		1.47684673		8.14392595		-0.00024691		-0.00032217		 0.00007416	
Si		15.59632032		5.25445333		2.74047466		 0.00024691		 0.00032217		-0.00007416	
Si		15.59632032		5.25445333		8.14392595		 0.00024691		 0.00032217		 0.00007416	
Si		1.37132495		1.47684673		2.74047466		-0.00024691		-0.00032217		-0.00007416	
Si		11.26363084		4.95087164		5.44220030		 0.00018521		 0.00024199		0.00000000	
Si		5.70401274		1.78042841		5.44220030		-0.00018521		-0.00024199		0.00000000	
Si		14.18783453		1.58522077		0.00000000		-0.00018521		 0.00024199		-0.00000000	
Si		2.77980905		5.14607929		0.00000000		 0.00018521		-0.00024199		-0.00000000	
Si		5.73811770		1.90361181		0.00000000		-0.00021308		 0.00050592		0.00000000	
Si		11.22952587		4.82768825		0.00000000		 0.00021308		-0.00050592		0.00000000	
Si		2.74570408		5.26926099		5.44220030		 0.00021308		 0.00050592		0.00000000	
Si		14.22193949		1.46203737		5.44220030		-0.00021308		-0.00050592		0.00000000	
Mg		8.48382179		0.00000000		5.44220030		0.00000000		0.00000000		0.00000000	
Mg		0.00000000		3.36564918		0.00000000		0.00000000		0.00000000		0.00000000	
Mg		8.48382179		0.00000000		0.00000000		0.00000000		0.00000000		0.00000000	
Mg		0.00000000		3.36564918		5.44220030		0.00000000		0.00000000		0.00000000	
O		4.89855870		1.72994458		1.32789627		 0.00011387		 0.00009548		 0.00039302	
O		12.06908488		5.00135547		9.55650434		-0.00011387		-0.00009548		-0.00039302	
O		12.06908488		5.00135547		1.32789627		-0.00011387		-0.00009548		 0.00039302	
O		4.89855870		1.72994458		9.55650434		 0.00011387		 0.00009548		-0.00039302	
O		3.58526309		5.09559376		4.11430403		-0.00011387		 0.00009548		-0.00039302	
O		13.38238049		1.63570629		6.77009657		 0.00011387		-0.00009548		 0.00039302	
O		13.38238049		1.63570629		4.11430403		 0.00011387		-0.00009548		-0.00039302	
O		3.58526309		5.09559376		6.77009657		-0.00011387		 0.00009548		 0.00039302	
O		11.82305404		5.70410437		4.13933640		-0.00048186		 0.00061433		-0.00003292	
O		5.14458953		1.02719569		6.74506251		 0.00048186		-0.00061433		 0.00003292	
O		5.14458953		1.02719569		4.13933640		 0.00048186		-0.00061433		-0.00003292	
O		11.82305404		5.70410437		6.74506251		-0.00048186		 0.00061433		 0.00003292	
O		13.62841132		2.33845349		1.30286221		 0.00048186		 0.00061433		 0.00003292	
O		3.33923226		4.39284657		9.58153670		-0.00048186		-0.00061433		-0.00003292	
O		3.33923226		4.39284657		1.30286221		-0.00048186		-0.00061433		 0.00003292	
O		13.62841132		2.33845349		9.58153670		 0.00048186		 0.00061433		-0.00003292	
O		8.07150805		5.25647248		9.36711489		 0.00005450		 0.00000591		-0.00003791	
O		8.89613553		1.47482758		1.51728571		-0.00005450		-0.00000591		 0.00003791	
O		8.89613553		1.47482758		9.36711489		-0.00005450		-0.00000591		-0.00003791	
O		8.07150805		5.25647248		1.51728571		 0.00005450		 0.00000591		 0.00003791	
O		0.41231374		1.89082160		6.95948602		-0.00005450		 0.00000591		 0.00003791	
O		16.55532984		4.84047846		3.92491459		 0.00005450		-0.00000591		-0.00003791	
O		16.55532984		4.84047846		6.95948602		 0.00005450		-0.00000591		 0.00003791	
O		0.41231374		1.89082160		3.92491459		-0.00005450		 0.00000591		-0.00003791	
O		5.75084344		5.45302566		8.55731544		 0.00000912		-0.00025576		 0.00017355	
O		11.21680014		1.27827440		2.32708517		-0.00000912		 0.00025576		-0.00017355	
O		11.21680014		1.27827440		8.55731544		-0.00000912		 0.00025576		 0.00017355	
O		5.75084344		5.45302566		2.32708517		 0.00000912		-0.00025576		-0.00017355	
O		2.73297835		2.08737648		7.76928547		-0.00000912		-0.00025576		-0.00017355	
O		14.23466523		4.64392358		3.11511514		 0.00000912		 0.00025576		 0.00017355	
O		14.23466523		4.64392358		7.76928547		 0.00000912		 0.00025576		-0.00017355	
O		2.73297835		2.08737648		3.11511514		-0.00000912		-0.00025576		 0.00017355	
O		6.37983398		3.33805131		0.00000000		 0.00004284		-0.00006516		-0.00000000	
O		10.58780959		3.39324875		0.00000000		-0.00004284		 0.00006516		-0.00000000	
O		2.10398780		6.70370218		5.44220030		-0.00004284		-0.00006516		0.00000000	
O		14.86365577		0.02759787		5.44220030		 0.00004284		 0.00006516		-0.00000000	
O		6.98218533		3.29497046		7.82697207		 0.00044444		-0.00029259		-0.00041114	
O		9.98545824		3.43632960		3.05742854		-0.00044444		 0.00029259		 0.00041114	
O		9.98545824		3.43632960		7.82697207		-0.00044444		 0.00029259		-0.00041114	
O		6.98218533		3.29497046		3.05742854		 0.00044444		-0.00029259		 0.00041114	
O		1.50163646		6.66062134		8.49962715		-0.00044444		-0.00029259		 0.00041114	
O		15.46600712		0.07067872		2.38477176		 0.00044444		 0.00029259		-0.00041114	
O		15.46600712		0.07067872		8.49962715		 0.00044444		 0.00029259		 0.00041114	
O		1.50163646		6.66062134		2.38477176		-0.00044444		-0.00029259		-0.00041114	
O		6.74972861		0.70342081		0.00000000		-0.00042732		-0.00004858		0.00000000	
O		10.21791496		6.02787924		0.00000000		 0.00042732		 0.00004858		0.00000000	
O		1.73409317		4.06907169		5.44220030		 0.00042732		-0.00004858		0.00000000	
O		15.23355040		2.66222837		5.44220030		-0.00042732		 0.00004858		0.00000000	
O		9.78014976		5.19521759		5.44220030		-0.00000393		-0.00045258		-0.00000000	
O		7.18749382		1.53608247		5.44220030		 0.00000393		 0.00045258		-0.00000000	
O		15.67131561		1.82956671		0.00000000		 0.00000393		-0.00045258		-0.00000000	
O		1.29632797		4.90173335		0.00000000		-0.00000393		 0.00045258		-0.00000000	
O		11.78572523		3.45046364		5.44220030		-0.00006135		-0.00019529		-0.00000000	
O		5.18191835		3.28083641		5.44220030		 0.00006135		 0.00019529		-0.00000000	
O		13.66574014		0.08481446		0.00000000		 0.00006135		-0.00019529		0.00000000	
O		3.30190344		6.64648559		0.00000000		-0.00006135		 0.00019529		0.00000000	
O		7.53872404		5.66102352		6.85281723		 0.00024704		-0.00010244		 0.00007417	
O		9.42891954		1.07027654		4.03158168		-0.00024704		 0.00010244		-0.00007417	
O		9.42891954		1.07027654		6.85281723		-0.00024704		 0.00010244		 0.00007417	
O		7.53872404		5.66102352		4.03158168		 0.00024704		-0.00010244		-0.00007417	
O		0.94509775		2.29537264		9.47378198		-0.00024704		-0.00010244		-0.00007417	
O		16.02254583		4.43592572		1.41061862		 0.00024704		 0.00010244		 0.00007417	
O		16.02254583		4.43592572		9.47378198		 0.00024704		 0.00010244		-0.00007417	
O		0.94509775		2.29537264		1.41061862		-0.00024704		-0.00010244		 0.00007417	
