# total energy = -41273.25961 eV

CRYSTAL
PRIMVEC
		5.69829968		0.00000000		0.00000000
		0.00000000		10.86609906		0.00000000
		0.00000000		0.00000000		8.25659691
PRIMECORD
   56 1
Mg		0.00000000		0.00000000		0.00000000		0.00000000		0.00000000		0.00000000
Mg		0.00000000		5.43304953		0.00000000		0.00000000		0.00000000		0.00000000
Mg		2.84914984		5.43304953		4.12829960		0.00000000		0.00000000		0.00000000
Mg		2.84914984		0.00000000		4.12829960		0.00000000		0.00000000		0.00000000
Mg		0.00000000		2.71652477		8.00972777		-0.00000000		-0.00001800		 0.00000262
Mg		0.00000000		8.14957430		0.24687200		-0.00000000		 0.00001800		-0.00000262
Mg		2.84914984		8.14957430		3.88142760		-0.00000000		 0.00001802		 0.00000263
Mg		2.84914984		2.71652477		4.37517273		-0.00000000		-0.00001802		-0.00000263
Mg		1.42457492		1.38651370		2.06414980		 0.00000001		-0.00065412		 0.00000001
Mg		4.27372476		9.47958423		6.19244939		-0.00000001		 0.00065412		-0.00000001
Mg		4.27372476		4.04653469		2.06414980		-0.00000001		 0.00062883		-0.00000001
Mg		1.42457492		6.81956380		6.19244939		 0.00000001		-0.00062883		 0.00000001
Mg		4.27372476		6.81956380		6.19244939		-0.00000001		-0.00062883		 0.00000001
Mg		1.42457492		4.04653469		2.06414980		 0.00000001		 0.00062883		-0.00000001
Mg		1.42457492		9.47958423		6.19244939		 0.00000001		 0.00065412		-0.00000001
Mg		4.27372476		1.38651370		2.06414980		-0.00000001		-0.00065412		 0.00000001
Si		0.00000000		1.30175890		5.09267072		0.00000000		-0.00000543		 0.00020187
Si		0.00000000		9.56434074		3.16392904		0.00000000		 0.00000543		-0.00020187
Si		0.00000000		4.13129063		5.09267072		0.00000000		 0.00003504		 0.00020057
Si		0.00000000		6.73480786		3.16392904		0.00000000		-0.00003504		-0.00020057
Si		2.84914984		6.73480786		0.96437112		-0.00000000		-0.00003502		 0.00020053
Si		2.84914984		4.13129063		7.29222864		-0.00000000		 0.00003502		-0.00020053
Si		2.84914984		9.56434074		0.96437112		0.00000000		 0.00000549		 0.00020213
Si		2.84914984		1.30175890		7.29222864		0.00000000		-0.00000549		-0.00020213
O		0.00000000		2.71652477		1.78838002		0.00000000		-0.00002335		 0.00020558
O		0.00000000		8.14957430		6.46822089		0.00000000		 0.00002335		-0.00020558
O		2.84914984		8.14957430		5.91667961		-0.00000000		 0.00002337		 0.00020561
O		2.84914984		2.71652477		2.33992072		-0.00000000		-0.00002337		-0.00020561
O		0.00000000		2.71652477		5.91502881		0.00000000		 0.00001613		 0.00000410
O		0.00000000		8.14957430		2.34157209		0.00000000		-0.00001613		-0.00000410
O		2.84914984		8.14957430		1.78672865		-0.00000000		-0.00001607		 0.00000405
O		2.84914984		2.71652477		6.46987168		-0.00000000		 0.00001607		-0.00000405
O		0.00000000		10.75743819		2.11203774		-0.00000000		-0.00018132		-0.00005030
O		0.00000000		0.10866088		6.14456145		-0.00000000		 0.00018132		 0.00005030
O		0.00000000		5.54171041		2.11203774		-0.00000000		 0.00015136		-0.00005603
O		0.00000000		5.32438866		6.14456145		-0.00000000		-0.00015136		 0.00005603
O		2.84914984		5.32438866		6.24033847		0.00000000		-0.00015133		-0.00005612
O		2.84914984		5.54171041		2.01626186		0.00000000		 0.00015133		 0.00005612
O		2.84914984		0.10866088		6.24033847		0.00000000		 0.00018143		-0.00005017
O		2.84914984		10.75743819		2.01626186		0.00000000		-0.00018143		 0.00005017
O		1.49010480		1.33109716		8.19467577		-0.00031453		 0.00004269		-0.00039912
O		4.20819375		9.53500133		0.06192399		 0.00031453		-0.00004269		 0.00039912
O		4.20819375		4.10195294		8.19467577		 0.00031635		-0.00004688		-0.00039898
O		1.49010480		6.76414670		0.06192399		-0.00031635		 0.00004688		 0.00039898
O		4.20819375		6.76414670		0.06192399		 0.00031635		 0.00004688		 0.00039898
O		1.49010480		4.10195294		8.19467577		-0.00031635		-0.00004688		-0.00039898
O		1.49010480		9.53500133		0.06192399		-0.00031453		-0.00004269		 0.00039912
O		4.20819375		1.33109716		8.19467577		 0.00031453		 0.00004269		-0.00039912
O		4.33925464		6.76414670		4.06637560		-0.00031637		 0.00004687		-0.00039896
O		1.35904504		4.10195294		4.19022473		 0.00031637		-0.00004687		 0.00039896
O		1.35904504		9.53500133		4.06637560		 0.00031447		-0.00004269		-0.00039919
O		4.33925464		1.33109716		4.19022473		-0.00031447		 0.00004269		 0.00039919
O		1.35904504		1.33109716		4.19022473		 0.00031447		 0.00004269		 0.00039919
O		4.33925464		9.53500133		4.06637560		-0.00031447		-0.00004269		-0.00039919
O		4.33925464		4.10195294		4.19022473		-0.00031637		-0.00004687		 0.00039896
O		1.35904504		6.76414670		4.06637560		 0.00031637		 0.00004687		-0.00039896
