# total energy = -24716.1084084 eV	

CRYSTAL	
PRIMVEC	
		9.20099977		0.00000000		0.00000000	
		0.00000000		9.26757821		0.00000000	
		-0.97849872		0.00000000		4.80947299	
PRIMCOORD
   40 1	
Si		2.54259968		0.84798254		1.01576001		 0.00007436		 0.00043352		-0.00053658	
Si		5.67990229		8.41959198		3.79371022		-0.00007436		-0.00043352		 0.00053658	
Si		6.16915073		0.84798254		1.38897464		-0.00007435		 0.00043359		 0.00053655	
Si		2.05335124		8.41959198		3.42049467		 0.00007435		-0.00043359		-0.00053655	
Si		7.14309956		5.48177072		1.01576001		 0.00008935		 0.00044306		-0.00052928	
Si		1.07940241		3.78580472		3.79371022		-0.00008935		-0.00044306		 0.00052928	
Si		1.56865085		5.48177072		1.38897464		-0.00008936		 0.00044307		 0.00052926	
Si		6.65385112		3.78580472		3.42049467		 0.00008936		-0.00044307		-0.00052926	
Mg		-0.24462422		8.39364241		1.20236825		 0.00000001		 0.00079851		0.00000000	
Mg		-0.73387266		0.87393212		3.60710290		-0.00000001		-0.00079851		-0.00000000	
Mg		4.35587567		3.75985606		1.20236825		 0.00000002		 0.00079752		 0.00000001	
Mg		3.86662722		5.50772030		3.60710290		-0.00000002		-0.00079752		-0.00000001	
Mg		-0.24462422		2.54116892		1.20236825		-0.00000001		 0.00013515		-0.00000000	
Mg		-0.73387266		6.72640652		3.60710290		 0.00000001		-0.00013515		0.00000000	
Mg		4.35587567		7.17495618		1.20236825		-0.00000001		 0.00013620		-0.00000001	
Mg		3.86662722		2.09261926		3.60710290		 0.00000001		-0.00013620		 0.00000001	
O		0.98190953		0.84705600		0.66851612		-0.00068022		 0.00015056		-0.00027629	
O		7.24059152		8.42051853		4.14095411		 0.00068022		-0.00015056		 0.00027629	
O		7.72984088		0.84705600		1.73621854		 0.00068024		 0.00015055		 0.00027629	
O		0.49266109		8.42051853		3.07325170		-0.00068024		-0.00015055		-0.00027629	
O		5.58241126		5.48084418		0.66851612		-0.00068987		 0.00014957		-0.00027842	
O		2.64009163		3.78673126		4.14095411		 0.00068987		-0.00014957		 0.00027842	
O		3.12934099		5.48084418		1.73621854		 0.00068987		 0.00014958		 0.00027842	
O		5.09316190		3.78673126		3.07325170		-0.00068987		-0.00014958		-0.00027842	
O		3.13727133		2.20197590		1.76507563		 0.00018573		-0.00034690		 0.00003674	
O		5.08523064		7.06559954		3.04439460		-0.00018573		 0.00034690		-0.00003674	
O		5.57448000		2.20197590		0.63965994		-0.00018573		-0.00034690		-0.00003671	
O		2.64802197		7.06559954		4.16981121		 0.00018573		 0.00034690		 0.00003671	
O		7.73777122		6.83576317		1.76507563		 0.00017983		-0.00035669		 0.00003204	
O		0.48473075		2.43181228		3.04439460		-0.00017983		 0.00035669		-0.00003204	
O		0.97398011		6.83576317		0.63965994		-0.00017982		-0.00035670		-0.00003205	
O		7.24852278		2.43181228		4.16981121		 0.00017982		 0.00035670		 0.00003205	
O		2.38943063		0.56810193		4.40066613		 0.00067129		-0.00000022		-0.00036081	
O		5.83307042		8.69947260		0.40880502		-0.00067129		 0.00000022		 0.00036081	
O		5.34382197		0.56810193		2.81353968		-0.00067131		-0.00000026		 0.00036082	
O		2.87867999		8.69947260		1.99592964		 0.00067131		 0.00000026		-0.00036082	
O		6.98993144		5.20189011		4.40066613		 0.00066895		-0.00000115		-0.00036122	
O		1.23257053		4.06568533		0.40880502		-0.00066895		 0.00000115		 0.00036122	
O		0.74332209		5.20189011		2.81353968		-0.00066899		-0.00000113		 0.00036125	
O		7.47918080		4.06568533		1.99592964		 0.00066899		 0.00000113		-0.00036125	
