# total energy = -24715.7216265 eV	

CRYSTAL	
PRIMVEC	
		9.20099977		0.00000000		0.00000000	
		0.00000000		9.48310242		0.00000000	
		-0.97849872		0.00000000		4.80947299	
PRIMCOORD
   40 1	
Si		2.54259968		0.86770396		1.01576001		 0.00011714		 0.00010552		-0.00088734	
Si		5.67990229		8.61539662		3.79371022		-0.00011714		-0.00010552		 0.00088734	
Si		6.16915073		0.86770396		1.38897464		-0.00011724		 0.00010567		 0.00088721	
Si		2.05335124		8.61539662		3.42049467		 0.00011724		-0.00010567		-0.00088721	
Si		7.14309956		5.60925426		1.01576001		 0.00013565		 0.00011704		-0.00087858	
Si		1.07940241		3.87384725		3.79371022		-0.00013565		-0.00011704		 0.00087858	
Si		1.56865085		5.60925426		1.38897464		-0.00013580		 0.00011727		 0.00087842	
Si		6.65385112		3.87384725		3.42049467		 0.00013580		-0.00011727		-0.00087842	
Mg		-0.24462422		8.58884346		1.20236825		-0.00000000		 0.00085525		0.00000000	
Mg		-0.73387266		0.89425621		3.60710290		0.00000000		-0.00085525		-0.00000000	
Mg		4.35587567		3.84729408		1.20236825		0.00000000		 0.00085411		-0.00000001	
Mg		3.86662722		5.63580558		3.60710290		-0.00000000		-0.00085411		 0.00000001	
Mg		-0.24462422		2.60026602		1.20236825		-0.00000001		 0.00022063		-0.00000001	
Mg		-0.73387266		6.88283456		3.60710290		 0.00000001		-0.00022063		 0.00000001	
Mg		4.35587567		7.34181539		1.20236825		0.00000000		 0.00022232		-0.00000002	
Mg		3.86662722		2.14128427		3.60710290		-0.00000000		-0.00022232		 0.00000002	
O		0.98190953		0.86675534		0.66851612		-0.00065238		 0.00052024		-0.00013472	
O		7.24059152		8.61634524		4.14095411		 0.00065238		-0.00052024		 0.00013472	
O		7.72984088		0.86675534		1.73621854		 0.00065245		 0.00052023		 0.00013471	
O		0.49266109		8.61634524		3.07325170		-0.00065245		-0.00052023		-0.00013471	
O		5.58241126		5.60830563		0.66851612		-0.00066408		 0.00051933		-0.00013752	
O		2.64009163		3.87479495		4.14095411		 0.00066408		-0.00051933		 0.00013752	
O		3.12934099		5.60830563		1.73621854		 0.00066415		 0.00051932		 0.00013752	
O		5.09316190		3.87479495		3.07325170		-0.00066415		-0.00051932		-0.00013752	
O		3.13727133		2.25318499		1.76507563		-0.00041610		-0.00050413		 0.00034328	
O		5.08523064		7.22991560		3.04439460		 0.00041610		 0.00050413		-0.00034328	
O		5.57448000		2.25318499		0.63965994		 0.00041612		-0.00050425		-0.00034322	
O		2.64802197		7.22991560		4.16981121		-0.00041612		 0.00050425		 0.00034322	
O		7.73777122		6.99473528		1.76507563		-0.00042303		-0.00051525		 0.00033727	
O		0.48473075		2.48836622		3.04439460		 0.00042303		 0.00051525		-0.00033727	
O		0.97398011		6.99473528		0.63965994		 0.00042307		-0.00051542		-0.00033717	
O		7.24852278		2.48836622		4.16981121		-0.00042307		 0.00051542		 0.00033717	
O		2.38943063		0.58131364		4.40066613		 0.00047179		 0.00035874		-0.00046786	
O		5.83307042		8.90178602		0.40880502		-0.00047179		-0.00035874		 0.00046786	
O		5.34382197		0.58131364		2.81353968		-0.00047179		 0.00035868		 0.00046791	
O		2.87867999		8.90178602		1.99592964		 0.00047179		-0.00035868		-0.00046791	
O		6.98993144		5.32286394		4.40066613		 0.00046898		 0.00035776		-0.00046868	
O		1.23257053		4.16023573		0.40880502		-0.00046898		-0.00035776		 0.00046868	
O		0.74332209		5.32286394		2.81353968		-0.00046902		 0.00035764		 0.00046882	
O		7.47918080		4.16023573		1.99592964		 0.00046902		-0.00035764		-0.00046882	
