# total energy = -24716.0608371 eV	

CRYSTAL	
PRIMVEC	
		9.20099977		0.00000000		0.00000000	
		0.00000000		8.62099635		0.00000000	
		-0.97849872		0.00000000		4.92970246	
PRIMCOORD
   40 1	
Si		2.54259968		0.78882195		1.04115385		-0.00030867		-0.00059037		-0.00014376	
Si		5.67990229		7.83217900		3.88855321		 0.00030867		 0.00059037		 0.00014376	
Si		6.16915073		0.78882195		1.42369922		 0.00030845		-0.00059020		 0.00014352	
Si		2.05335124		7.83217900		3.50600784		-0.00030845		 0.00059020		-0.00014352	
Si		7.14309956		5.09932197		1.04115385		-0.00030466		-0.00058793		-0.00014159	
Si		1.07940241		3.52167898		3.88855321		 0.00030466		 0.00058793		 0.00014159	
Si		1.56865085		5.09932197		1.42369922		 0.00030443		-0.00058771		 0.00014134	
Si		6.65385112		3.52167898		3.50600784		-0.00030443		 0.00058771		-0.00014134	
Mg		-0.24462422		7.80804017		1.23242699		-0.00000001		-0.00026543		 0.00000002	
Mg		-0.73387266		0.81295986		3.69728006		 0.00000001		 0.00026543		-0.00000002	
Mg		4.35587567		3.49754016		1.23242699		 0.00000002		-0.00026565		 0.00000001	
Mg		3.86662722		5.12345987		3.69728006		-0.00000002		 0.00026565		-0.00000001	
Mg		-0.24462422		2.36387762		1.23242699		-0.00000001		-0.00078888		 0.00000002	
Mg		-0.73387266		6.25712149		3.69728006		 0.00000001		 0.00078888		-0.00000002	
Mg		4.35587567		6.67437763		1.23242699		 0.00000002		-0.00078856		 0.00000001	
Mg		3.86662722		1.94662240		3.69728006		-0.00000002		 0.00078856		-0.00000001	
O		0.98190953		0.78795890		0.68522882		 0.00057879		-0.00042963		 0.00038232	
O		7.24059152		7.83304113		4.24447824		-0.00057879		 0.00042963		-0.00038232	
O		7.72984088		0.78795890		1.77962425		-0.00057867		-0.00042959		-0.00038227	
O		0.49266109		7.83304113		3.15008281		 0.00057867		 0.00042959		 0.00038227	
O		5.58241126		5.09845983		0.68522882		 0.00057617		-0.00042953		 0.00038186	
O		2.64009163		3.52254112		4.24447824		-0.00057617		 0.00042953		-0.00038186	
O		3.12934099		5.09845983		1.77962425		-0.00057599		-0.00042954		-0.00038184	
O		5.09316190		3.52254112		3.15008281		 0.00057599		 0.00042954		 0.00038184	
O		3.13727133		2.04834957		1.80920271		 0.00020350		-0.00025567		-0.00022814	
O		5.08523064		6.57265046		3.12050527		-0.00020350		 0.00025567		 0.00022814	
O		5.57448000		2.04834957		0.65565128		-0.00020348		-0.00025585		 0.00022828	
O		2.64802197		6.57265046		4.27405577		 0.00020348		 0.00025585		-0.00022828	
O		7.73777122		6.35884959		1.80920271		 0.00020186		-0.00025817		-0.00022961	
O		0.48473075		2.26214952		3.12050527		-0.00020186		 0.00025817		 0.00022961	
O		0.97398011		6.35884959		0.65565128		-0.00020181		-0.00025840		 0.00022978	
O		7.24852278		2.26214952		4.27405577		 0.00020181		 0.00025840		-0.00022978	
O		2.38943063		0.52846678		4.51068157		 0.00006041		-0.00029086		 0.00050079	
O		5.83307042		8.09253325		0.41902457		-0.00006041		 0.00029086		-0.00050079	
O		5.34382197		0.52846678		2.88387856		-0.00006045		-0.00029092		-0.00050079	
O		2.87867999		8.09253325		2.04582850		 0.00006045		 0.00029092		 0.00050079	
O		6.98993144		4.83896680		4.51068157		 0.00005961		-0.00029116		 0.00050053	
O		1.23257053		3.78203323		0.41902457		-0.00005961		 0.00029116		-0.00050053	
O		0.74332209		4.83896680		2.88387856		-0.00005971		-0.00029124		-0.00050048	
O		7.47918080		3.78203323		2.04582850		 0.00005971		 0.00029124		 0.00050048	
