# total energy = -12347.5292126 eV

CRYSTAL
PRIMVEC
		4.44490026		0.17779583		0.00000000
		0.18659043		4.66480072		0.00000000
		0.00000000		0.00000000		6.45440065
PRIMECORD
   20 1
O		0.56388388		2.23711891		1.61359994		 0.00058116		 0.00052997		0.00000000
O		4.06760814		2.60547719		4.84080026		-0.00058116		-0.00052997		0.00000000
O		2.70218126		0.22219185		4.84080026		 0.00040326		-0.00034767		-0.00000000
O		1.92931121		4.62040425		1.61359994		-0.00040326		 0.00034767		0.00000000
O		0.87315512		0.93798423		3.62801809		 0.00014662		 0.00023126		-0.00029055
O		3.75833690		3.90461188		2.82638211		-0.00014662		-0.00023126		 0.00029055
O		3.11654101		1.55027218		2.82638211		 0.00048228		-0.00001952		-0.00003309
O		1.51495101		3.29232392		3.62801809		-0.00048228		 0.00001952		 0.00003309
O		3.75833690		3.90461188		0.40081821		-0.00014662		-0.00023126		-0.00029055
O		0.87315512		0.93798423		6.05358199		 0.00014662		 0.00023126		 0.00029055
O		1.51495101		3.29232392		6.05358199		-0.00048228		 0.00001952		-0.00003309
O		3.11654101		1.55027218		0.40081821		 0.00048228		-0.00001952		 0.00003309
Mg		2.41188801		2.80564786		1.61359994		-0.00035693		-0.00033099		0.00000000
Mg		2.21960401		2.03694824		4.84080026		 0.00035693		 0.00033099		0.00000000
Mg		0.25224517		4.28692229		4.84080026		 0.00061186		 0.00029068		0.00000000
Mg		4.37924819		0.55567381		1.61359994		-0.00061186		-0.00029068		0.00000000
Si		2.22245013		0.08889792		3.22719988		0.00000000		0.00000000		0.00000000
Si		0.09329610		2.33239991		3.22719988		0.00000000		0.00000000		0.00000000
Si		2.22245013		0.08889792		0.00000000		0.00000000		0.00000000		0.00000000
Si		0.09329610		2.33239991		0.00000000		0.00000000		0.00000000		0.00000000
