# total energy = -12344.9735251 eV

CRYSTAL
PRIMVEC
		4.44489886		0.35559102		0.00000000
		0.37318217		4.66479943		0.00000000
		0.00000000		0.00000000		6.45440168
PRIMECORD
   20 1
O		0.65260906		2.25612500		1.61360020		 0.00078864		 0.00024048		0.00000000
O		4.16547508		2.76426722		4.84080015		-0.00078864		-0.00024048		-0.00000000
O		2.70675284		0.33009611		4.84080015		 0.00025565		-0.00001630		-0.00000000
O		2.11133086		4.69029612		1.61360020		-0.00025565		 0.00001630		0.00000000
O		0.90933512		0.97146289		3.62801829		 0.00029613		 0.00009803		-0.00024695
O		3.90874903		4.04892889		2.82638205		-0.00029613		-0.00009803		 0.00024695
O		3.17365595		1.67264895		2.82638205		 0.00023434		-0.00002036		-0.00025326
O		1.64442819		3.34774327		3.62801829		-0.00023434		 0.00002036		 0.00025326
O		3.90874903		4.04892889		0.40081790		-0.00029613		-0.00009803		-0.00024695
O		0.90933512		0.97146289		6.05358200		 0.00029613		 0.00009803		 0.00024695
O		1.64442819		3.34774327		6.05358200		-0.00023434		 0.00002036		-0.00025326
O		3.17365595		1.67264895		0.40081790		 0.00023434		-0.00002036		 0.00025326
Mg		2.52042797		2.89778207		1.61360020		 0.00008945		-0.00016345		-0.00000000
Mg		2.29765618		2.12261015		4.84080015		-0.00008945		 0.00016345		-0.00000000
Mg		0.42359186		4.29015824		4.84080015		 0.00079974		 0.00066011		0.00000000
Mg		4.39449228		0.73023488		1.61360020		-0.00079974		-0.00066011		0.00000000
Si		2.22244987		0.17779595		3.22719995		0.00000000		0.00000000		0.00000000
Si		0.18659198		2.33240016		3.22719995		0.00000000		0.00000000		0.00000000
Si		2.22244987		0.17779595		0.00000000		0.00000000		0.00000000		0.00000000
Si		0.18659198		2.33240016		0.00000000		0.00000000		0.00000000		0.00000000
