# total energy = -8761.44663167 eV	

CRYSTAL	
PRIMVEC	
		3.04799884		0.24383930		0.00000000	
		-1.31282747		2.51772596		0.00000000	
		0.00000000		0.00000000		12.36199947	
PRIMCOORD
   11 1	
H		0.14078100		1.75976384		5.80643145		 0.00025294		-0.00013079		-0.00017900	
H		1.59439099		1.00180203		6.55556832		-0.00025294		 0.00013079		 0.00017900	
Mg		0.00000000		0.00000000		8.63732907		-0.00011441		-0.00008369		 0.00008303	
Mg		0.00000000		0.00000000		3.72467070		 0.00011441		 0.00008369		-0.00008303	
Mg		1.59439099		1.00180203		11.12703576		-0.00048711		 0.00025581		 0.00007992	
Mg		0.14078100		1.75976384		1.23496401		 0.00048711		-0.00025581		-0.00007992	
O		1.59439099		1.00180203		2.46992771		-0.00034650		 0.00040549		 0.00010534	
O		0.14078100		1.75976384		9.89207206		 0.00034650		-0.00040549		-0.00010534	
O		0.14078100		1.75976384		4.81623445		-0.00007086		-0.00048762		-0.00004256	
O		1.59439099		1.00180203		7.54576410		 0.00007086		 0.00048762		 0.00004256	
O		0.00000000		0.00000000		0.00000000		0.00000000		0.00000000		0.00000000	
