# total energy = -13384.3070426 eV

CRYSTAL
PRIMVEC
		3.05300001		0.00000000		0.00000000
		-1.52650001		2.64397739		0.00000000
		0.00000000		0.00000000		21.63437629
PRIMECORD
   18 1
O		0.00000000		0.00000000		6.73478095		0.00000000		0.00000000		-0.00028735
O		0.00000000		0.00000000		14.89959321		0.00000000		0.00000000		 0.00028735
O		1.52650001		0.88132508		9.26384006		0.00000000		0.00000000		 0.00012165
O		0.00000000		1.76264986		12.37053501		0.00000000		-0.00000000		-0.00012165
O		1.52650001		0.88132508		1.55334809		0.00000000		0.00000000		 0.00026069
O		0.00000000		1.76264986		20.08102698		0.00000000		-0.00000000		-0.00026069
O		0.00000000		1.76264986		4.08240689		0.00000000		-0.00000000		 0.00020997
O		1.52650001		0.88132508		17.55196818		0.00000000		0.00000000		-0.00020997
H		1.52650001		0.88132508		10.32825111		0.00000000		0.00000000		-0.00065483
H		0.00000000		1.76264986		11.30612396		0.00000000		-0.00000000		 0.00065483
H		1.52650001		0.88132508		0.48893704		0.00000000		-0.00000000		 0.00022649
H		0.00000000		1.76264986		21.14543803		0.00000000		0.00000000		-0.00022649
Mg		0.00000000		1.76264986		8.06745911		0.00000000		-0.00000000		 0.00050033
Mg		1.52650001		0.88132508		13.56691596		-0.00000000		-0.00000000		-0.00050033
Mg		0.00000000		0.00000000		2.74972903		0.00000000		0.00000000		-0.00058522
Mg		0.00000000		0.00000000		18.88464603		0.00000000		0.00000000		 0.00058522
Mg		1.52650001		0.88132508		5.41075712		0.00000000		0.00000000		-0.00006907
Mg		0.00000000		1.76264986		16.22361703		-0.00000000		0.00000000		 0.00006907
