# total energy = -9075.68785024 eV

CRYSTAL
PRIMVEC
		5.11310008		0.00000000		0.00000000
		0.00000000		5.18980170		0.00000000
		-0.00383994		0.00000000		7.14704016
PRIMECORD
   28 1
Mg		3.87988016		2.66755698		1.79390713		 0.00031003		 0.00040166		 0.00029544
Mg		1.22938202		0.07265715		5.35313405		-0.00031003		 0.00040166		-0.00029544
Si		1.27731580		0.06746684		1.78676004		 0.00009491		-0.00006984		-0.00005854
Si		3.83194690		2.66236718		5.36028114		-0.00009491		-0.00006984		 0.00005854
O		1.85420490		5.07043433		3.44487397		 0.00023657		 0.00004809		 0.00023835
O		3.25505627		2.47553399		3.70216721		-0.00023657		 0.00004809		-0.00023835
O		4.40885184		2.85439017		6.98980620		 0.00009931		 0.00022522		-0.00003089
O		0.70040983		0.25948983		0.15723499		-0.00009931		 0.00022522		 0.00003089
O		4.63492194		4.16740921		4.95290001		 0.00009073		 0.00031494		 0.00028008
O		0.47434025		1.57250888		2.19414220		-0.00009073		 0.00031494		-0.00028008
O		2.29781695		3.43045810		5.73192733		 0.00002827		-0.00089233		 0.00019649
O		2.81144524		0.83555776		1.41511385		-0.00002827		-0.00089233		-0.00019649
O		4.84599122		4.35424189		2.28705285		-0.00026512		-0.00024488		-0.00049646
O		0.26327097		1.75934206		4.85998782		 0.00026512		-0.00024488		 0.00049646
O		1.99853084		3.65880915		1.28646723		-0.00001001		 0.00028815		 0.00010191
O		3.11073084		1.06390881		5.86057396		 0.00001001		 0.00028815		-0.00010191
H		2.33481023		4.16740921		3.49490310		-0.00024431		-0.00012978		 0.00013361
H		2.77445196		1.57250888		3.65213809		 0.00024431		-0.00012978		-0.00013361
H		4.92013526		3.62766986		7.03983635		-0.00053658		-0.00022956		-0.00029120
H		0.18912692		1.03277003		0.10720586		 0.00053658		-0.00022956		 0.00029120
H		1.56163791		2.83363098		5.53181031		-0.00040083		-0.00027475		-0.00019606
H		3.54762427		0.23873115		1.61523087		 0.00040083		-0.00027475		 0.00019606
H		3.95984700		4.93549911		5.22448692		-0.00026191		 0.00003153		 0.00001232
H		1.14941518		2.34059979		1.92255426		 0.00026191		 0.00003153		-0.00001232
H		4.77904131		4.42170924		3.18043313		-0.00002838		 0.00050488		-0.00073683
H		0.33022088		1.82680993		3.96660806		 0.00002838		 0.00050488		 0.00073683
H		2.10639424		3.59653108		0.37879277		 0.00030289		 0.00002667		 0.00029188
H		3.00286794		1.00163125		6.76824790		-0.00030289		 0.00002667		-0.00029188
