# total energy = -9074.91416066 eV

CRYSTAL
PRIMVEC
		5.11310008		0.00000000		0.00000000
		0.00000000		5.18980170		0.00000000
		-0.00383994		0.00000000		8.06332815
PRIMECORD
   28 1
Mg		3.87988016		2.66755698		2.02389488		 0.00033469		-0.00019331		 0.00011256
Mg		1.22938202		0.07265715		6.03943326		-0.00033469		-0.00019331		-0.00011256
Si		1.27731580		0.06746684		2.01583204		 0.00029709		 0.00005815		-0.00008167
Si		3.83194690		2.66236718		6.04749713		-0.00029709		 0.00005815		 0.00008167
O		1.85420490		5.07043433		3.88652413		 0.00008318		-0.00052100		-0.00016933
O		3.25505627		2.47553399		4.17680402		-0.00008318		-0.00052100		 0.00016933
O		4.40885184		2.85439017		7.88593528		-0.00036665		 0.00001449		-0.00005685
O		0.70040983		0.25948983		0.17739287		 0.00036665		 0.00001449		 0.00005685
O		4.63492194		4.16740921		5.58788722		-0.00034265		 0.00023813		 0.00025878
O		0.47434025		1.57250888		2.47544196		 0.00034265		 0.00023813		-0.00025878
O		2.29781695		3.43045810		6.46679026		-0.00004190		-0.00008388		-0.00006667
O		2.81144524		0.83555776		1.59653891		 0.00004190		-0.00008388		 0.00006667
O		4.84599122		4.35424189		2.58026511		 0.00017214		-0.00068810		 0.00034517
O		0.26327097		1.75934206		5.48306406		-0.00017214		-0.00068810		-0.00034517
O		1.99853084		3.65880915		1.45139896		-0.00003032		-0.00024403		 0.00018674
O		3.11073084		1.06390881		6.61193021		 0.00003032		-0.00024403		-0.00018674
H		2.33481023		4.16740921		3.94296815		 0.00007422		 0.00012236		 0.00025280
H		2.77445196		1.57250888		4.12036102		-0.00007422		 0.00012236		-0.00025280
H		4.92013526		3.62766986		7.94237930		-0.00000148		-0.00005166		-0.00050163
H		0.18912692		1.03277003		0.12094987		 0.00000148		-0.00005166		 0.00050163
H		1.56163791		2.83363098		6.24101621		 0.00011720		 0.00020225		-0.00002292
H		3.54762427		0.23873115		1.82231194		-0.00011720		 0.00020225		 0.00002292
H		3.95984700		4.93549911		5.89429332		-0.00017611		 0.00023194		-0.00001489
H		1.14941518		2.34059979		2.16903483		 0.00017611		 0.00023194		 0.00001489
H		4.77904131		4.42170924		3.58818087		 0.00002370		 0.00047468		-0.00015200
H		0.33022088		1.82680993		4.47514830		-0.00002370		 0.00047468		 0.00015200
H		2.10639424		3.59653108		0.42735597		-0.00009374		 0.00043997		-0.00064227
H		3.00286794		1.00163125		7.63597320		 0.00009374		 0.00043997		 0.00064227
