# total energy = -18390.9166972 eV

CRYSTAL
PRIMVEC
		10.90904553		0.00000000		0.00001111
		0.00000000		6.30919965		0.00000000
		0.00000000		0.00000000		4.79288976
PRIMECORD
   28 1
Mg		0.00000000		0.00000000		0.00000000		-0.00000015		 0.00000008		 0.00000015
Mg		5.45452610		0.00000000		2.39644932		 0.00000029		-0.00000007		 0.00000012
Mg		0.00000000		3.15459871		0.00000000		-0.00000022		-0.00000013		 0.00000017
Mg		5.45452610		3.15459871		2.39644932		 0.00000026		0.00000000		 0.00000009
Ca		3.00291107		1.57729936		4.67378826		 0.00018218		-0.00000139		 0.00004258
Ca		7.90614225		4.73189696		0.11910927		-0.00018195		 0.00000137		-0.00004244
Ca		2.45161392		4.73189696		2.27734894		-0.00018239		 0.00000143		 0.00004054
Ca		8.45743828		1.57729936		2.51554971		 0.00018208		-0.00000137		-0.00004059
Si		0.88242694		1.57729936		1.97198277		 0.00012810		-0.00000009		 0.00015038
Si		10.02662526		4.73189696		2.82091477		-0.00012882		 0.00000004		-0.00015054
Si		4.57210027		4.73189696		4.36843098		-0.00012682		 0.00000009		 0.00014930
Si		6.33695193		1.57729936		0.42446767		 0.00012748		-0.00000008		-0.00014998
O		0.83964533		1.57729936		3.59217039		-0.00007879		 0.00002881		 0.00018508
O		10.06940799		4.73189696		1.20072714		 0.00008102		-0.00002880		-0.00018507
O		4.61486633		4.73189696		1.19572885		 0.00007346		-0.00002852		 0.00018574
O		6.29418698		1.57729936		3.59716980		-0.00007582		 0.00002859		-0.00018534
O		4.86224380		1.57729825		1.19106384		-0.00002629		 0.00002898		-0.00015825
O		6.04680951		4.73189696		3.60183481		 0.00002553		-0.00002884		 0.00015779
O		0.59227564		4.73189696		3.58750539		 0.00002350		-0.00002882		-0.00015677
O		10.31677656		1.57729936		1.20539215		-0.00002299		 0.00002899		 0.00015637
O		1.62017763		0.26965595		1.30018874		-0.00008235		 0.00013048		-0.00022013
O		9.28887457		6.03954037		3.49270880		 0.00008326		-0.00013009		 0.00022021
O		3.83434514		6.03953704		3.69663584		 0.00008348		-0.00013084		-0.00021961
O		7.07470817		0.26965817		1.09626170		-0.00008397		 0.00013034		 0.00022000
O		9.28887457		3.42425466		3.49270880		 0.00008309		 0.00018778		 0.00022016
O		1.62017763		2.88494166		1.30018985		-0.00008233		-0.00018830		-0.00022023
O		7.07470817		2.88493944		1.09626170		-0.00008429		-0.00018896		 0.00022007
O		3.83434403		3.42425577		3.69663584		 0.00008342		 0.00018933		-0.00021983
