# total energy = -18390.3100055 eV

CRYSTAL
PRIMVEC
		11.59068729		0.00000000		0.00008888
		0.00000000		6.56754693		0.00000000
		0.00004444		0.00000000		4.96573602
PRIMECORD
   28 1
Mg		0.00000000		0.00000000		0.00000000		 0.00000009		 0.00000004		-0.00000003
Mg		5.79536698		0.00000000		2.48291578		-0.00000002		-0.00000009		-0.00000002
Mg		0.00000000		3.28377347		0.00000000		 0.00000005		-0.00000006		-0.00000005
Mg		5.79536586		3.28377347		2.48291467		 0.00000003		 0.00000002		-0.00000001
Ca		3.24169732		1.64188618		4.89257466		 0.00000678		 0.00000003		 0.00001517
Ca		8.34903552		4.92565964		0.07325580		-0.00000679		-0.00000010		-0.00001523
Ca		2.55392962		4.92565964		2.40972887		 0.00000727		-0.00000018		 0.00003013
Ca		9.03680322		1.64188618		2.55610159		-0.00000723		 0.00000015		-0.00003024
Si		0.95146101		1.64188729		2.02094921		 0.00024055		-0.00000001		-0.00029278
Si		10.63927071		4.92565964		2.94488125		-0.00023983		-0.00000013		 0.00029268
Si		4.84434591		4.92565964		4.50387499		-0.00022898		 0.00000002		-0.00028877
Si		6.74638693		1.64188618		0.46195547		 0.00022874		 0.00000001		 0.00028879
O		0.90676740		1.64188618		3.66433632		 0.00030897		-0.00000010		-0.00069634
O		10.68396544		4.92565964		1.30149414		-0.00030965		 0.00000018		 0.00069607
O		4.88875067		4.92565964		1.18151608		-0.00031298		 0.00000002		-0.00069209
O		6.70198217		1.64188618		3.78431438		 0.00031366		-0.00000010		 0.00069232
O		5.24855153		1.64188618		1.23416875		 0.00033264		-0.00000002		-0.00031359
O		6.34218131		4.92565964		3.73166170		-0.00033357		 0.00000005		 0.00031406
O		0.54638994		4.92565964		3.71703343		-0.00027468		 0.00000018		-0.00032069
O		11.04434290		1.64188618		1.24879703		 0.00027488		-0.00000013		 0.00032116
O		1.69641418		0.31004562		1.34627107		 0.00035485		 0.00032515		 0.00049703
O		9.89431754		6.25750131		3.61955938		-0.00035504		-0.00032528		-0.00049699
O		4.09949828		6.25749909		3.82912798		-0.00042518		-0.00032332		 0.00049652
O		7.49123456		0.31004784		1.13670359		 0.00042532		 0.00032367		-0.00049684
O		9.89431865		3.59381798		3.61955938		-0.00035531		 0.00032496		-0.00049690
O		1.69641418		2.97372784		1.34627107		 0.00035527		-0.00032476		 0.00049673
O		7.49123456		2.97372562		1.13670248		 0.00042548		-0.00032338		-0.00049661
O		4.09949828		3.59382020		3.82912798		-0.00042534		 0.00032321		 0.00049652
