# total energy = -38097.6700925 eV	

CRYSTAL	
PRIMVEC	
		5.68253712		0.00000000		0.00000000	
		0.00000000		11.31593433		0.00000000	
		0.00000000		0.00000000		8.07098205	
PRIMCOORD
   58 1	
O		1.47165428		1.42027340		8.07422940		-0.00022648		 0.00006549		 0.00006624	
O		4.21088341		9.89565980		-0.00325019		 0.00022652		-0.00006550		-0.00006625	
O		4.21088398		4.23769320		8.07422997		 0.00022646		-0.00006549		 0.00006623	
O		1.47165428		7.07823943		-0.00325019		-0.00022648		 0.00006550		-0.00006622	
O		1.47165428		9.89565980		-0.00325019		-0.00022652		-0.00006549		-0.00006622	
O		4.21088398		1.42027340		8.07422997		 0.00022649		 0.00006547		 0.00006624	
O		4.21088398		7.07823943		-0.00325019		 0.00022649		 0.00006549		-0.00006622	
O		1.47165428		4.23769320		8.07422997		-0.00022647		-0.00006547		 0.00006622	
O		2.84126913		5.53032354		6.12288308		 0.00000001		-0.00013758		 0.00012077	
O		2.84126913		5.78560966		1.94809670		0.00000000		 0.00013762		-0.00012078	
O		2.84126913		0.12764306		6.12288251		0.00000000		 0.00013757		 0.00012078	
O		2.84126913		11.18829013		1.94809670		0.00000000		-0.00013762		-0.00012078	
O		0.00000000		2.82898330		5.76973325		 0.00000001		 0.00000001		 0.00024702	
O		0.00000000		8.48694990		2.30124595		 0.00000001		-0.00000002		-0.00024696	
O		0.00000000		2.82898330		1.92929000		-0.00000000		0.00000000		-0.00017378	
O		0.00000000		8.48694990		6.14168978		 0.00000001		-0.00000003		 0.00017369	
O		2.84126913		8.48694990		5.79074564		-0.00000000		-0.00000001		-0.00015205	
O		2.84126913		2.82898330		2.28023357		-0.00000001		 0.00000001		 0.00015223	
O		2.84126913		8.48694990		1.74545054		-0.00000000		-0.00000002		-0.00037403	
O		2.84126913		2.82898330		6.32552924		 0.00000001		 0.00000003		 0.00037396	
O		0.00000000		11.16850838		2.00311482		0.00000000		 0.00012709		 0.00058141	
O		0.00000000		0.14742482		6.06786495		 0.00000001		-0.00012713		-0.00058138	
O		0.00000000		5.80539141		2.00311482		 0.00000001		-0.00012707		 0.00058132	
O		0.00000000		5.51054178		6.06786495		0.00000000		 0.00012713		-0.00058130	
O		4.35546331		7.01526431		4.06373750		-0.00023654		-0.00021669		-0.00015921	
O		1.32707494		4.30066888		4.00724227		 0.00023645		 0.00021670		 0.00015925	
O		1.32707494		9.95863548		4.06373750		 0.00023651		 0.00021670		-0.00015927	
O		4.35546331		1.35729771		4.00724227		-0.00023646		-0.00021673		 0.00015923	
O		4.35546331		4.30066888		4.00724227		-0.00023645		 0.00021671		 0.00015922	
O		1.32707494		7.01526431		4.06373750		 0.00023649		-0.00021669		-0.00015926	
O		1.32707494		1.35729771		4.00724227		 0.00023642		-0.00021672		 0.00015926	
O		4.35546331		9.95863548		4.06373750		-0.00023650		 0.00021671		-0.00015925	
H		2.84126913		8.48694990		4.80511472		 0.00000001		0.00000000		 0.00027248	
H		2.84126913		2.82898330		3.26586448		 0.00000001		0.00000000		-0.00027265	
H		0.00000000		2.82898330		2.91180335		-0.00000000		0.00000000		 0.00022404	
H		0.00000000		8.48694990		5.15917643		-0.00000000		0.00000000		-0.00022389	
Mg		2.84126913		5.65796660		4.03548989		0.00000000		 0.00000003		-0.00000001	
Mg		2.84126913		0.00000000		4.03548989		0.00000000		-0.00000003		0.00000000	
Mg		0.00000000		0.00000000		0.00000000		 0.00000001		-0.00000001		-0.00000002	
Mg		0.00000000		5.65796660		0.00000000		 0.00000001		0.00000000		-0.00000002	
Mg		1.44604438		1.31246844		2.03044658		-0.00025051		-0.00014579		 0.00007666	
Mg		4.23649387		10.00346418		6.04053263		 0.00025052		 0.00014579		-0.00007667	
Mg		4.23649387		4.34549758		2.03044658		 0.00025050		 0.00014580		 0.00007669	
Mg		1.44604438		6.97043504		6.04053320		-0.00025052		-0.00014579		-0.00007669	
Mg		1.44604438		10.00346418		6.04053263		-0.00025052		 0.00014578		-0.00007668	
Mg		4.23649387		1.31246844		2.03044658		 0.00025052		-0.00014579		 0.00007667	
Mg		4.23649387		6.97043504		6.04053320		 0.00025050		-0.00014579		-0.00007670	
Mg		1.44604438		4.34549758		2.03044658		-0.00025051		 0.00014581		 0.00007667	
Mg		0.00000000		2.82898330		7.74020161		 0.00000001		0.00000000		 0.00047265	
Mg		0.00000000		8.48694990		0.33077817		 0.00000001		0.00000000		-0.00047270	
Si		2.84126913		7.06639872		0.93216161		-0.00000001		-0.00000677		 0.00013781	
Si		2.84126913		4.24953447		7.13881817		-0.00000001		 0.00000671		-0.00013773	
Si		2.84126913		9.90750107		0.93216161		0.00000000		 0.00000674		 0.00013783	
Si		2.84126913		1.40843212		7.13881817		-0.00000001		-0.00000667		-0.00013775	
Si		0.00000000		1.35328934		4.92613161		 0.00000001		 0.00025957		-0.00009257	
Si		0.00000000		9.96264386		3.14484816		-0.00000000		-0.00025950		 0.00009251	
Si		0.00000000		4.30467726		4.92613161		-0.00000001		-0.00025958		-0.00009260	
Si		0.00000000		7.01125594		3.14484816		 0.00000001		 0.00025950		 0.00009252	
