
     Program PWSCF v.6.6 starts on  4Feb2024 at 13:34:49 

     This program is part of the open-source Quantum ESPRESSO suite
     for quantum simulation of materials; please cite
         "P. Giannozzi et al., J. Phys.:Condens. Matter 21 395502 (2009);
         "P. Giannozzi et al., J. Phys.:Condens. Matter 29 465901 (2017);
          URL http://www.quantum-espresso.org", 
     in publications or presentations arising from this work. More details at
     http://www.quantum-espresso.org/quote

     Parallel version (MPI & OpenMP), running on      16 processor cores
     Number of MPI processes:                16
     Threads/MPI process:                     1

     MPI processes distributed on     2 nodes
     R & G space division:  proc/nbgrp/npool/nimage =      16
     Fft bands division:     nmany     =       1
     Waiting for input...
     Reading input from standard input

     Current dimensions of program PWSCF are:
     Max number of different atomic species (ntypx) = 10
     Max number of k-points (npk) =  40000
     Max angular momentum in pseudopotentials (lmaxx) =  3

     IMPORTANT: XC functional enforced from input :
     Exchange-correlation= PBE
                           (   1   4   3   4   0   0   0)
     Any further DFT definition will be discarded
     Please, verify this is what you really want


     --------------------------------------------
     Parameters for DFT-D3 Dispersion Correction:
     --------------------------------------------
       Reference C6 values for interpolation: 

         atom   Coordination number   C6
         O          0.000            31.01
         O          0.993            25.63
         O          1.989            20.74
         Mg         0.000          1366.75
         Mg         0.963           902.54
         Mg         1.950           351.12

       Values used:

         atom   Coordination number  R0_AB[au]  C6      C8
         Mg        16.582            3.292    351.12  31436.69
         Mg        16.582            3.292    351.12  31436.69
         Mg        16.582            3.292    351.12  31436.69
         Mg        16.582            3.292    351.12  31436.69
         O          5.817            2.345     20.74    418.58
         O          5.817            2.345     20.74    418.58
         O          5.817            2.345     20.74    418.58
         O          5.817            2.345     20.74    418.58

         Molecular C6 ( Ry / a.u.^6 ) =      8251.69


     Subspace diagonalization in iterative solution of the eigenvalue problem:
     a serial algorithm will be used

     Found symmetry operation: I + (  0.0000 -0.5000 -0.5000)
     This is a supercell, fractional translations are disabled
 
     Parallelization info
     --------------------
     sticks:   dense  smooth     PW     G-vecs:    dense   smooth      PW
     Min         126     126     35                 4252     4252     619
     Max         127     127     36                 4255     4255     623
     Sum        2025    2025    561                68051    68051    9939
 


     bravais-lattice index     =            0
     lattice parameter (alat)  =       7.9576  a.u.
     unit-cell volume          =     503.9092 (a.u.)^3
     number of atoms/cell      =            8
     number of atomic types    =            2
     number of electrons       =        64.00
     number of Kohn-Sham states=           38
     kinetic-energy cutoff     =     100.0000  Ry
     charge density cutoff     =     400.0000  Ry
     convergence threshold     =      1.0E-06
     mixing beta               =       0.5000
     number of iterations used =            8  plain     mixing
     Exchange-correlation= PBE
                           (   1   4   3   4   0   0   0)
     nstep                     =          100


     celldm(1)=   7.957637  celldm(2)=   0.000000  celldm(3)=   0.000000
     celldm(4)=   0.000000  celldm(5)=   0.000000  celldm(6)=   0.000000

     crystal axes: (cart. coord. in units of alat)
               a(1) = (   1.000000   0.000000   0.000000 )  
               a(2) = (   0.000000   1.000000   0.000000 )  
               a(3) = (   0.000000   0.000000   1.000000 )  

     reciprocal axes: (cart. coord. in units 2 pi/alat)
               b(1) = (  1.000000  0.000000  0.000000 )  
               b(2) = (  0.000000  1.000000  0.000000 )  
               b(3) = (  0.000000  0.000000  1.000000 )  


     PseudoPot. # 1 for Mg read from file:
     ./Mg.upf
     MD5 check sum: 4c04d8c6e0476e83eaecaf72fa8acc4d
     Pseudo is Norm-conserving, Zval = 10.0
     Generated using ONCVPSP code by D. R. Hamann
     Using radial grid of 1510 points,  4 beta functions with: 
                l(1) =   0
                l(2) =   0
                l(3) =   1
                l(4) =   1

     PseudoPot. # 2 for O  read from file:
     ./O.upf
     MD5 check sum: 3e3f909f7470e8921608ab6b1f57bbae
     Pseudo is Norm-conserving + core correction, Zval =  6.0
     Generated using ONCVPSP code by D. R. Hamann
     Using radial grid of  936 points,  5 beta functions with: 
                l(1) =   0
                l(2) =   0
                l(3) =   1
                l(4) =   1
                l(5) =   2

     atomic species   valence    mass     pseudopotential
        Mg            10.00    24.30500     Mg( 1.00)
        O              6.00    15.99900     O ( 1.00)

     No symmetry found



   Cartesian axes

     site n.     atom                  positions (alat units)
         1           Mg  tau(   1) = (   0.0000000   0.0000000   0.0000000  )
         2           Mg  tau(   2) = (   0.0000000   0.5000000   0.5000000  )
         3           Mg  tau(   3) = (   0.5000000   0.0000000   0.5000000  )
         4           Mg  tau(   4) = (   0.5000000   0.5000000   0.0000000  )
         5           O   tau(   5) = (   0.5000000   0.5000000   0.5000000  )
         6           O   tau(   6) = (   0.5000000   0.0000000   0.0000000  )
         7           O   tau(   7) = (   0.0000000   0.5000000   0.0000000  )
         8           O   tau(   8) = (   0.0000000   0.0000000   0.5000000  )

     number of k points=    63  Gaussian smearing, width (Ry)=  0.0050
                       cart. coord. in units 2pi/alat
        k(    1) = (   0.0000000   0.0000000   0.0000000), wk =   0.0160000
        k(    2) = (   0.0000000   0.0000000   0.2000000), wk =   0.0320000
        k(    3) = (   0.0000000   0.0000000   0.4000000), wk =   0.0320000
        k(    4) = (   0.0000000   0.2000000   0.0000000), wk =   0.0320000
        k(    5) = (   0.0000000   0.2000000   0.2000000), wk =   0.0320000
        k(    6) = (   0.0000000   0.2000000   0.4000000), wk =   0.0320000
        k(    7) = (   0.0000000   0.2000000  -0.4000000), wk =   0.0320000
        k(    8) = (   0.0000000   0.2000000  -0.2000000), wk =   0.0320000
        k(    9) = (   0.0000000   0.4000000   0.0000000), wk =   0.0320000
        k(   10) = (   0.0000000   0.4000000   0.2000000), wk =   0.0320000
        k(   11) = (   0.0000000   0.4000000   0.4000000), wk =   0.0320000
        k(   12) = (   0.0000000   0.4000000  -0.4000000), wk =   0.0320000
        k(   13) = (   0.0000000   0.4000000  -0.2000000), wk =   0.0320000
        k(   14) = (   0.2000000   0.0000000   0.0000000), wk =   0.0320000
        k(   15) = (   0.2000000   0.0000000   0.2000000), wk =   0.0320000
        k(   16) = (   0.2000000   0.0000000   0.4000000), wk =   0.0320000
        k(   17) = (   0.2000000   0.0000000  -0.4000000), wk =   0.0320000
        k(   18) = (   0.2000000   0.0000000  -0.2000000), wk =   0.0320000
        k(   19) = (   0.2000000   0.2000000   0.0000000), wk =   0.0320000
        k(   20) = (   0.2000000   0.2000000   0.2000000), wk =   0.0320000
        k(   21) = (   0.2000000   0.2000000   0.4000000), wk =   0.0320000
        k(   22) = (   0.2000000   0.2000000  -0.4000000), wk =   0.0320000
        k(   23) = (   0.2000000   0.2000000  -0.2000000), wk =   0.0320000
        k(   24) = (   0.2000000   0.4000000   0.0000000), wk =   0.0320000
        k(   25) = (   0.2000000   0.4000000   0.2000000), wk =   0.0320000
        k(   26) = (   0.2000000   0.4000000   0.4000000), wk =   0.0320000
        k(   27) = (   0.2000000   0.4000000  -0.4000000), wk =   0.0320000
        k(   28) = (   0.2000000   0.4000000  -0.2000000), wk =   0.0320000
        k(   29) = (   0.2000000  -0.4000000   0.0000000), wk =   0.0320000
        k(   30) = (   0.2000000  -0.4000000   0.2000000), wk =   0.0320000
        k(   31) = (   0.2000000  -0.4000000   0.4000000), wk =   0.0320000
        k(   32) = (   0.2000000  -0.4000000  -0.4000000), wk =   0.0320000
        k(   33) = (   0.2000000  -0.4000000  -0.2000000), wk =   0.0320000
        k(   34) = (   0.2000000  -0.2000000   0.0000000), wk =   0.0320000
        k(   35) = (   0.2000000  -0.2000000   0.2000000), wk =   0.0320000
        k(   36) = (   0.2000000  -0.2000000   0.4000000), wk =   0.0320000
        k(   37) = (   0.2000000  -0.2000000  -0.4000000), wk =   0.0320000
        k(   38) = (   0.2000000  -0.2000000  -0.2000000), wk =   0.0320000
        k(   39) = (   0.4000000   0.0000000   0.0000000), wk =   0.0320000
        k(   40) = (   0.4000000   0.0000000   0.2000000), wk =   0.0320000
        k(   41) = (   0.4000000   0.0000000   0.4000000), wk =   0.0320000
        k(   42) = (   0.4000000   0.0000000  -0.4000000), wk =   0.0320000
        k(   43) = (   0.4000000   0.0000000  -0.2000000), wk =   0.0320000
        k(   44) = (   0.4000000   0.2000000   0.0000000), wk =   0.0320000
        k(   45) = (   0.4000000   0.2000000   0.2000000), wk =   0.0320000
        k(   46) = (   0.4000000   0.2000000   0.4000000), wk =   0.0320000
        k(   47) = (   0.4000000   0.2000000  -0.4000000), wk =   0.0320000
        k(   48) = (   0.4000000   0.2000000  -0.2000000), wk =   0.0320000
        k(   49) = (   0.4000000   0.4000000   0.0000000), wk =   0.0320000
        k(   50) = (   0.4000000   0.4000000   0.2000000), wk =   0.0320000
        k(   51) = (   0.4000000   0.4000000   0.4000000), wk =   0.0320000
        k(   52) = (   0.4000000   0.4000000  -0.4000000), wk =   0.0320000
        k(   53) = (   0.4000000   0.4000000  -0.2000000), wk =   0.0320000
        k(   54) = (   0.4000000  -0.4000000   0.0000000), wk =   0.0320000
        k(   55) = (   0.4000000  -0.4000000   0.2000000), wk =   0.0320000
        k(   56) = (   0.4000000  -0.4000000   0.4000000), wk =   0.0320000
        k(   57) = (   0.4000000  -0.4000000  -0.4000000), wk =   0.0320000
        k(   58) = (   0.4000000  -0.4000000  -0.2000000), wk =   0.0320000
        k(   59) = (   0.4000000  -0.2000000   0.0000000), wk =   0.0320000
        k(   60) = (   0.4000000  -0.2000000   0.2000000), wk =   0.0320000
        k(   61) = (   0.4000000  -0.2000000   0.4000000), wk =   0.0320000
        k(   62) = (   0.4000000  -0.2000000  -0.4000000), wk =   0.0320000
        k(   63) = (   0.4000000  -0.2000000  -0.2000000), wk =   0.0320000

     Dense  grid:    68051 G-vectors     FFT dimensions: (  54,  54,  54)

     Estimated max dynamical RAM per process >      29.22 MB

     Estimated total dynamical RAM >     467.47 MB

     Initial potential from superposition of free atoms

     starting charge   63.99678, renormalised to   64.00000
     Starting wfcs are   36 randomized atomic wfcs +    2 random wfcs

     total cpu time spent up to now is        2.2 secs

     Self-consistent Calculation

     iteration #  1     ecut=   100.00 Ry     beta= 0.50
     Davidson diagonalization with overlap
     ethr =  1.00E-02,  avg # of iterations =  4.0

     total cpu time spent up to now is       10.1 secs

     total energy              =    -608.03223956 Ry
     estimated scf accuracy    <       1.57336964 Ry

     iteration #  2     ecut=   100.00 Ry     beta= 0.50
     Davidson diagonalization with overlap
     ethr =  2.46E-03,  avg # of iterations =  2.2

     total cpu time spent up to now is       14.1 secs

     total energy              =    -608.48016584 Ry
     estimated scf accuracy    <       0.24132896 Ry

     iteration #  3     ecut=   100.00 Ry     beta= 0.50
     Davidson diagonalization with overlap
     ethr =  3.77E-04,  avg # of iterations =  2.2

     total cpu time spent up to now is       17.9 secs

     total energy              =    -608.51529458 Ry
     estimated scf accuracy    <       0.01286812 Ry

     iteration #  4     ecut=   100.00 Ry     beta= 0.50
     Davidson diagonalization with overlap
     ethr =  2.01E-05,  avg # of iterations =  4.1

     total cpu time spent up to now is       22.3 secs

     total energy              =    -608.51591804 Ry
     estimated scf accuracy    <       0.00171225 Ry

     iteration #  5     ecut=   100.00 Ry     beta= 0.50
     Davidson diagonalization with overlap
     ethr =  2.68E-06,  avg # of iterations =  3.9

     total cpu time spent up to now is       26.6 secs

     total energy              =    -608.51631878 Ry
     estimated scf accuracy    <       0.00005206 Ry

     iteration #  6     ecut=   100.00 Ry     beta= 0.50
     Davidson diagonalization with overlap
     ethr =  8.13E-08,  avg # of iterations =  2.1

     total cpu time spent up to now is       30.4 secs

     total energy              =    -608.51633117 Ry
     estimated scf accuracy    <       0.00000150 Ry

     iteration #  7     ecut=   100.00 Ry     beta= 0.50
     Davidson diagonalization with overlap
     ethr =  2.35E-09,  avg # of iterations =  2.9

     total cpu time spent up to now is       34.4 secs

     total energy              =    -608.51633010 Ry
     estimated scf accuracy    <       0.00000321 Ry

     iteration #  8     ecut=   100.00 Ry     beta= 0.50
     Davidson diagonalization with overlap
     ethr =  2.35E-09,  avg # of iterations =  2.5

     total cpu time spent up to now is       38.3 secs

     End of self-consistent calculation

          k = 0.0000 0.0000 0.0000 (  8409 PWs)   bands (ev):

   -64.2904 -64.2789 -64.2789 -64.2789 -31.1156 -31.1156 -31.1156 -31.0716
   -31.0716 -31.0716 -31.0716 -31.0716 -31.0716 -31.0431 -31.0431 -31.0431
    -9.1286  -7.5854  -7.5854  -7.5853   4.0215   4.0215   4.0215   6.7284
     6.7284   6.7284   6.7284   6.7284   6.7285   8.0632   8.0632   8.0632
    12.8379  17.2907  17.2907  18.0836  18.0836  18.0836

          k = 0.0000 0.0000 0.2000 (  8501 PWs)   bands (ev):

   -64.2893 -64.2800 -64.2789 -64.2789 -31.1114 -31.1114 -31.1095 -31.0758
   -31.0758 -31.0723 -31.0723 -31.0689 -31.0689 -31.0508 -31.0458 -31.0458
    -8.9846  -7.7348  -7.5636  -7.5636   4.2128   4.2128   4.2479   6.3644
     6.3644   6.5784   6.5784   6.8368   6.8368   7.3531   7.9122   7.9122
    13.6615  17.6208  17.8675  17.8675  17.9372  18.6672

          k = 0.0000 0.0000 0.4000 (  8542 PWs)   bands (ev):

   -64.2864 -64.2829 -64.2789 -64.2789 -31.1003 -31.1003 -31.0927 -31.0868
   -31.0868 -31.0735 -31.0735 -31.0703 -31.0617 -31.0617 -31.0529 -31.0529
    -8.6035  -8.1253  -7.5280  -7.5280   4.7601   4.7601   4.9403   5.5608
     5.5608   6.0583   6.3469   6.3469   7.1366   7.1366   7.5447   7.5447
    15.3077  16.9480  18.6064  19.1278  19.1278  19.9457

          k = 0.0000 0.2000 0.0000 (  8501 PWs)   bands (ev):

   -64.2893 -64.2800 -64.2789 -64.2789 -31.1114 -31.1114 -31.1095 -31.0758
   -31.0758 -31.0723 -31.0723 -31.0689 -31.0689 -31.0508 -31.0458 -31.0458
    -8.9846  -7.7348  -7.5636  -7.5635   4.2128   4.2128   4.2479   6.3644
     6.3644   6.5783   6.5784   6.8368   6.8368   7.3531   7.9122   7.9122
    13.6615  17.6208  17.8675  17.8675  17.9372  18.6672

          k = 0.0000 0.2000 0.2000 (  8512 PWs)   bands (ev):

   -64.2883 -64.2799 -64.2799 -64.2790 -31.1080 -31.1080 -31.1073 -31.0847
   -31.0729 -31.0729 -31.0682 -31.0682 -31.0670 -31.0618 -31.0486 -31.0439
    -8.8483  -7.6962  -7.6962  -7.5568   4.3404   4.3404   4.4003   5.7445
     6.4888   6.4888   6.7057   6.7559   6.7559   6.8624   7.7349   7.9490
    14.2550  18.0103  18.1463  18.3983  18.3983  19.3507

          k = 0.0000 0.2000 0.4000 (  8538 PWs)   bands (ev):

   -64.2857 -64.2825 -64.2796 -64.2793 -31.1033 -31.0972 -31.0966 -31.0953
   -31.0835 -31.0800 -31.0663 -31.0654 -31.0651 -31.0584 -31.0561 -31.0487
    -8.4905  -8.0489  -7.6163  -7.5624   4.6046   4.8051   4.9353   5.0638
     5.6579   5.7140   6.6971   6.8173   6.8340   7.1835   7.3062   7.6583
    15.6414  17.2265  18.7471  18.9614  19.1571  19.2684

          k = 0.0000 0.2000-0.4000 (  8538 PWs)   bands (ev):

   -64.2857 -64.2825 -64.2796 -64.2793 -31.1033 -31.0972 -31.0966 -31.0953
   -31.0835 -31.0800 -31.0663 -31.0654 -31.0651 -31.0584 -31.0561 -31.0487
    -8.4905  -8.0489  -7.6163  -7.5624   4.6046   4.8051   4.9353   5.0638
     5.6579   5.7140   6.6971   6.8173   6.8340   7.1835   7.3062   7.6583
    15.6414  17.2265  18.7471  18.9615  19.1571  19.2684

          k = 0.0000 0.2000-0.2000 (  8512 PWs)   bands (ev):

   -64.2883 -64.2799 -64.2799 -64.2790 -31.1080 -31.1080 -31.1073 -31.0847
   -31.0729 -31.0729 -31.0682 -31.0682 -31.0670 -31.0618 -31.0486 -31.0439
    -8.8483  -7.6962  -7.6962  -7.5568   4.3404   4.3404   4.4003   5.7445
     6.4888   6.4888   6.7057   6.7559   6.7559   6.8624   7.7349   7.9490
    14.2550  18.0103  18.1463  18.3983  18.3983  19.3508

          k = 0.0000 0.4000 0.0000 (  8542 PWs)   bands (ev):

   -64.2864 -64.2829 -64.2789 -64.2789 -31.1003 -31.1003 -31.0927 -31.0868
   -31.0868 -31.0735 -31.0735 -31.0703 -31.0617 -31.0617 -31.0529 -31.0529
    -8.6035  -8.1253  -7.5281  -7.5280   4.7601   4.7601   4.9403   5.5608
     5.5608   6.0583   6.3468   6.3469   7.1366   7.1366   7.5447   7.5447
    15.3077  16.9480  18.6064  19.1278  19.1278  19.9457

          k = 0.0000 0.4000 0.2000 (  8538 PWs)   bands (ev):

   -64.2857 -64.2825 -64.2796 -64.2793 -31.1033 -31.0972 -31.0966 -31.0953
   -31.0835 -31.0800 -31.0663 -31.0654 -31.0651 -31.0584 -31.0561 -31.0487
    -8.4905  -8.0489  -7.6163  -7.5624   4.6046   4.8051   4.9353   5.0638
     5.6579   5.7140   6.6971   6.8173   6.8340   7.1835   7.3062   7.6583
    15.6414  17.2265  18.7471  19.1571  19.2684  20.2428

          k = 0.0000 0.4000 0.4000 (  8510 PWs)   bands (ev):

   -64.2838 -64.2815 -64.2815 -64.2803 -31.1033 -31.1033 -31.1031 -31.0945
   -31.0869 -31.0750 -31.0750 -31.0645 -31.0568 -31.0549 -31.0549 -31.0480
    -8.2019  -7.8654  -7.8654  -7.6776   4.5832   4.5832   4.6169   4.9879
     5.4318   6.1434   6.1434   6.7441   7.2117   7.2690   7.2690   7.6309
    16.5379  17.7945  17.7945  18.2789  19.6317  20.0774

          k = 0.0000 0.4000-0.4000 (  8510 PWs)   bands (ev):

   -64.2838 -64.2815 -64.2815 -64.2803 -31.1033 -31.1033 -31.1031 -31.0945
   -31.0869 -31.0750 -31.0750 -31.0645 -31.0568 -31.0549 -31.0549 -31.0480
    -8.2019  -7.8654  -7.8654  -7.6776   4.5832   4.5832   4.6169   4.9879
     5.4318   6.1434   6.1434   6.7441   7.2117   7.2690   7.2690   7.6309
    16.5379  17.7945  17.7945  18.2789  19.6317  20.0773

          k = 0.0000 0.4000-0.2000 (  8538 PWs)   bands (ev):

   -64.2857 -64.2825 -64.2796 -64.2793 -31.1033 -31.0972 -31.0966 -31.0953
   -31.0835 -31.0800 -31.0663 -31.0654 -31.0651 -31.0584 -31.0561 -31.0487
    -8.4905  -8.0489  -7.6163  -7.5624   4.6046   4.8051   4.9353   5.0638
     5.6579   5.7140   6.6971   6.8173   6.8340   7.1835   7.3062   7.6583
    15.6414  17.2265  18.7471  18.9615  19.1571  19.2684

          k = 0.2000 0.0000 0.0000 (  8501 PWs)   bands (ev):

   -64.2893 -64.2800 -64.2789 -64.2789 -31.1114 -31.1114 -31.1095 -31.0758
   -31.0758 -31.0723 -31.0723 -31.0689 -31.0689 -31.0508 -31.0458 -31.0458
    -8.9846  -7.7348  -7.5636  -7.5636   4.2128   4.2128   4.2479   6.3644
     6.3644   6.5784   6.5784   6.8368   6.8368   7.3531   7.9122   7.9122
    13.6615  17.6208  17.8675  17.8675  17.9372  18.6672

          k = 0.2000 0.0000 0.2000 (  8512 PWs)   bands (ev):

   -64.2883 -64.2799 -64.2799 -64.2790 -31.1080 -31.1080 -31.1073 -31.0847
   -31.0729 -31.0729 -31.0682 -31.0682 -31.0670 -31.0618 -31.0486 -31.0439
    -8.8483  -7.6962  -7.6961  -7.5568   4.3404   4.3404   4.4003   5.7445
     6.4888   6.4889   6.7057   6.7559   6.7559   6.8624   7.7349   7.9490
    14.2550  18.0103  18.1462  18.1463  18.3983  18.3983

          k = 0.2000 0.0000 0.4000 (  8538 PWs)   bands (ev):

   -64.2857 -64.2825 -64.2796 -64.2793 -31.1033 -31.0972 -31.0966 -31.0953
   -31.0835 -31.0800 -31.0663 -31.0654 -31.0651 -31.0584 -31.0561 -31.0487
    -8.4905  -8.0489  -7.6163  -7.5624   4.6046   4.8051   4.9353   5.0638
     5.6579   5.7140   6.6971   6.8173   6.8340   7.1835   7.3062   7.6583
    15.6414  17.2265  18.7471  19.1571  19.2684  20.2432

          k = 0.2000 0.0000-0.4000 (  8538 PWs)   bands (ev):

   -64.2857 -64.2825 -64.2796 -64.2793 -31.1033 -31.0972 -31.0966 -31.0953
   -31.0835 -31.0800 -31.0663 -31.0654 -31.0651 -31.0584 -31.0561 -31.0487
    -8.4905  -8.0489  -7.6163  -7.5624   4.6046   4.8051   4.9353   5.0638
     5.6579   5.7140   6.6971   6.8173   6.8340   7.1835   7.3062   7.6583
    15.6414  17.2265  18.7471  18.9614  19.1571  19.2684

          k = 0.2000 0.0000-0.2000 (  8512 PWs)   bands (ev):

   -64.2883 -64.2799 -64.2799 -64.2790 -31.1080 -31.1080 -31.1073 -31.0847
   -31.0729 -31.0729 -31.0682 -31.0682 -31.0670 -31.0618 -31.0486 -31.0439
    -8.8483  -7.6962  -7.6961  -7.5568   4.3404   4.3404   4.4003   5.7445
     6.4888   6.4889   6.7057   6.7559   6.7559   6.8624   7.7349   7.9490
    14.2550  18.0103  18.1462  18.1463  18.3983  18.3983

          k = 0.2000 0.2000 0.0000 (  8512 PWs)   bands (ev):

   -64.2883 -64.2799 -64.2799 -64.2790 -31.1080 -31.1080 -31.1073 -31.0847
   -31.0729 -31.0729 -31.0682 -31.0682 -31.0670 -31.0618 -31.0486 -31.0439
    -8.8483  -7.6962  -7.6961  -7.5568   4.3404   4.3404   4.4003   5.7445
     6.4888   6.4889   6.7057   6.7559   6.7559   6.8624   7.7349   7.9490
    14.2550  18.0103  18.1463  18.1463  18.3983  18.3983

          k = 0.2000 0.2000 0.2000 (  8517 PWs)   bands (ev):

   -64.2874 -64.2799 -64.2799 -64.2799 -31.1085 -31.1085 -31.1085 -31.0765
   -31.0764 -31.0764 -31.0728 -31.0648 -31.0648 -31.0648 -31.0461 -31.0461
    -8.7203  -7.6719  -7.6719  -7.6718   4.3531   4.3531   4.3531   6.1068
     6.1091   6.1092   6.1092   6.9532   6.9533   6.9533   7.8301   7.8301
    14.6515  17.9659  17.9659  17.9659  19.2158  19.2158

          k = 0.2000 0.2000 0.4000 (  8510 PWs)   bands (ev):

   -64.2851 -64.2822 -64.2799 -64.2799 -31.1096 -31.1096 -31.1041 -31.0906
   -31.0789 -31.0789 -31.0623 -31.0623 -31.0616 -31.0590 -31.0518 -31.0499
    -8.3874  -7.9848  -7.6322  -7.6321   4.3411   4.3411   4.5446   5.1844
     5.8452   5.8453   6.8372   6.9496   6.9497   7.2024   7.5215   7.5360
    15.7320  17.1039  18.2408  18.2408  19.4441  20.0339

          k = 0.2000 0.2000-0.4000 (  8510 PWs)   bands (ev):

   -64.2851 -64.2822 -64.2799 -64.2799 -31.1096 -31.1096 -31.1041 -31.0906
   -31.0789 -31.0789 -31.0623 -31.0623 -31.0616 -31.0590 -31.0518 -31.0499
    -8.3874  -7.9848  -7.6322  -7.6321   4.3411   4.3411   4.5446   5.1844
     5.8452   5.8453   6.8372   6.9496   6.9497   7.2024   7.5215   7.5360
    15.7320  17.1039  18.2408  18.2408  19.4441  20.0339

          k = 0.2000 0.2000-0.2000 (  8517 PWs)   bands (ev):

   -64.2874 -64.2799 -64.2799 -64.2799 -31.1085 -31.1085 -31.1085 -31.0765
   -31.0764 -31.0764 -31.0728 -31.0648 -31.0648 -31.0648 -31.0461 -31.0461
    -8.7203  -7.6719  -7.6719  -7.6718   4.3531   4.3531   4.3531   6.1068
     6.1091   6.1092   6.1092   6.9532   6.9533   6.9533   7.8301   7.8301
    14.6515  17.9659  17.9659  17.9659  19.2158  19.2158

          k = 0.2000 0.4000 0.0000 (  8538 PWs)   bands (ev):

   -64.2857 -64.2825 -64.2796 -64.2793 -31.1033 -31.0972 -31.0966 -31.0953
   -31.0835 -31.0800 -31.0663 -31.0654 -31.0651 -31.0584 -31.0561 -31.0487
    -8.4905  -8.0489  -7.6163  -7.5624   4.6046   4.8051   4.9353   5.0638
     5.6579   5.7140   6.6971   6.8173   6.8340   7.1835   7.3062   7.6583
    15.6414  17.2265  18.7471  19.1571  19.2684  20.2428

          k = 0.2000 0.4000 0.2000 (  8510 PWs)   bands (ev):

   -64.2851 -64.2822 -64.2799 -64.2799 -31.1096 -31.1096 -31.1041 -31.0906
   -31.0789 -31.0789 -31.0623 -31.0623 -31.0616 -31.0590 -31.0518 -31.0499
    -8.3874  -7.9848  -7.6322  -7.6321   4.3411   4.3411   4.5446   5.1844
     5.8452   5.8453   6.8372   6.9496   6.9497   7.2024   7.5215   7.5360
    15.7320  17.1039  18.2408  18.2408  19.4441  20.0339

          k = 0.2000 0.4000 0.4000 (  8499 PWs)   bands (ev):

   -64.2835 -64.2815 -64.2815 -64.2806 -31.1157 -31.1135 -31.1135 -31.1059
   -31.0720 -31.0655 -31.0655 -31.0567 -31.0560 -31.0548 -31.0548 -31.0488
    -8.1287  -7.8373  -7.8373  -7.7009   4.0448   4.1381   4.1381   4.4786
     6.1921   6.6032   6.6032   7.1653   7.2498   7.2895   7.2895   7.5890
    16.2058  17.1556  17.1556  17.5297  20.1205  20.3550

          k = 0.2000 0.4000-0.4000 (  8499 PWs)   bands (ev):

   -64.2835 -64.2815 -64.2815 -64.2806 -31.1157 -31.1135 -31.1135 -31.1059
   -31.0720 -31.0655 -31.0655 -31.0567 -31.0560 -31.0548 -31.0548 -31.0488
    -8.1287  -7.8373  -7.8373  -7.7009   4.0448   4.1381   4.1381   4.4786
     6.1921   6.6032   6.6032   7.1653   7.2498   7.2895   7.2895   7.5890
    16.2058  17.1556  17.1556  17.5297  20.1207  20.3554

          k = 0.2000 0.4000-0.2000 (  8510 PWs)   bands (ev):

   -64.2851 -64.2822 -64.2799 -64.2799 -31.1096 -31.1096 -31.1041 -31.0906
   -31.0789 -31.0789 -31.0623 -31.0623 -31.0616 -31.0590 -31.0518 -31.0499
    -8.3874  -7.9848  -7.6322  -7.6321   4.3411   4.3411   4.5446   5.1844
     5.8452   5.8453   6.8372   6.9496   6.9497   7.2024   7.5215   7.5360
    15.7320  17.1039  18.2408  18.2408  19.4441  20.0339

          k = 0.2000-0.4000 0.0000 (  8538 PWs)   bands (ev):

   -64.2857 -64.2825 -64.2796 -64.2793 -31.1033 -31.0972 -31.0966 -31.0953
   -31.0835 -31.0800 -31.0663 -31.0654 -31.0651 -31.0584 -31.0561 -31.0487
    -8.4905  -8.0489  -7.6163  -7.5624   4.6046   4.8051   4.9353   5.0638
     5.6579   5.7140   6.6971   6.8173   6.8340   7.1835   7.3062   7.6583
    15.6414  17.2265  18.7471  18.9615  19.1571  19.2684

          k = 0.2000-0.4000 0.2000 (  8510 PWs)   bands (ev):

   -64.2851 -64.2822 -64.2799 -64.2799 -31.1096 -31.1096 -31.1041 -31.0906
   -31.0789 -31.0789 -31.0623 -31.0623 -31.0616 -31.0590 -31.0518 -31.0499
    -8.3874  -7.9848  -7.6322  -7.6321   4.3411   4.3411   4.5446   5.1844
     5.8452   5.8453   6.8372   6.9496   6.9497   7.2024   7.5215   7.5360
    15.7320  17.1039  18.2408  18.2408  19.4441  20.0339

          k = 0.2000-0.4000 0.4000 (  8499 PWs)   bands (ev):

   -64.2835 -64.2815 -64.2815 -64.2806 -31.1157 -31.1135 -31.1135 -31.1059
   -31.0720 -31.0655 -31.0655 -31.0567 -31.0560 -31.0548 -31.0548 -31.0488
    -8.1287  -7.8373  -7.8373  -7.7009   4.0448   4.1381   4.1381   4.4786
     6.1921   6.6032   6.6032   7.1653   7.2498   7.2895   7.2895   7.5890
    16.2058  17.1556  17.1556  17.5297  20.1206  20.3550

          k = 0.2000-0.4000-0.4000 (  8499 PWs)   bands (ev):

   -64.2835 -64.2815 -64.2815 -64.2806 -31.1157 -31.1135 -31.1135 -31.1059
   -31.0720 -31.0655 -31.0655 -31.0567 -31.0560 -31.0548 -31.0548 -31.0488
    -8.1287  -7.8373  -7.8373  -7.7009   4.0448   4.1381   4.1381   4.4786
     6.1921   6.6032   6.6032   7.1653   7.2498   7.2895   7.2895   7.5890
    16.2058  17.1556  17.1556  17.5297  20.1206  20.3552

          k = 0.2000-0.4000-0.2000 (  8510 PWs)   bands (ev):

   -64.2851 -64.2822 -64.2799 -64.2799 -31.1096 -31.1096 -31.1041 -31.0906
   -31.0789 -31.0789 -31.0623 -31.0623 -31.0616 -31.0590 -31.0518 -31.0499
    -8.3874  -7.9848  -7.6322  -7.6321   4.3411   4.3411   4.5446   5.1844
     5.8452   5.8453   6.8372   6.9496   6.9497   7.2024   7.5215   7.5360
    15.7320  17.1039  18.2408  18.2408  19.4441  20.0339

          k = 0.2000-0.2000 0.0000 (  8512 PWs)   bands (ev):

   -64.2883 -64.2799 -64.2799 -64.2790 -31.1080 -31.1080 -31.1073 -31.0847
   -31.0729 -31.0729 -31.0682 -31.0682 -31.0670 -31.0618 -31.0486 -31.0439
    -8.8483  -7.6962  -7.6961  -7.5568   4.3404   4.3404   4.4003   5.7445
     6.4888   6.4889   6.7057   6.7559   6.7559   6.8624   7.7349   7.9490
    14.2550  18.0103  18.1463  18.1463  18.3983  18.3983

          k = 0.2000-0.2000 0.2000 (  8517 PWs)   bands (ev):

   -64.2874 -64.2799 -64.2799 -64.2799 -31.1085 -31.1085 -31.1085 -31.0765
   -31.0764 -31.0764 -31.0728 -31.0648 -31.0648 -31.0648 -31.0461 -31.0461
    -8.7203  -7.6719  -7.6719  -7.6718   4.3531   4.3531   4.3531   6.1068
     6.1091   6.1092   6.1092   6.9532   6.9533   6.9533   7.8301   7.8301
    14.6515  17.9659  17.9659  17.9659  19.2158  19.2158

          k = 0.2000-0.2000 0.4000 (  8510 PWs)   bands (ev):

   -64.2851 -64.2822 -64.2799 -64.2799 -31.1096 -31.1096 -31.1041 -31.0906
   -31.0789 -31.0789 -31.0623 -31.0623 -31.0616 -31.0590 -31.0518 -31.0499
    -8.3874  -7.9848  -7.6322  -7.6321   4.3411   4.3411   4.5446   5.1844
     5.8452   5.8453   6.8372   6.9496   6.9497   7.2025   7.5215   7.5360
    15.7320  17.1039  18.2408  18.2408  19.4441  20.0339

          k = 0.2000-0.2000-0.4000 (  8510 PWs)   bands (ev):

   -64.2851 -64.2822 -64.2799 -64.2799 -31.1096 -31.1096 -31.1041 -31.0906
   -31.0789 -31.0789 -31.0623 -31.0623 -31.0616 -31.0590 -31.0518 -31.0499
    -8.3874  -7.9848  -7.6322  -7.6321   4.3411   4.3411   4.5446   5.1844
     5.8452   5.8453   6.8372   6.9496   6.9497   7.2025   7.5215   7.5360
    15.7320  17.1039  18.2408  18.2408  19.4441  20.0339

          k = 0.2000-0.2000-0.2000 (  8517 PWs)   bands (ev):

   -64.2874 -64.2799 -64.2799 -64.2799 -31.1085 -31.1085 -31.1085 -31.0765
   -31.0764 -31.0764 -31.0728 -31.0648 -31.0648 -31.0648 -31.0461 -31.0461
    -8.7203  -7.6719  -7.6719  -7.6718   4.3531   4.3531   4.3531   6.1068
     6.1091   6.1092   6.1092   6.9532   6.9533   6.9533   7.8301   7.8301
    14.6515  17.9659  17.9659  17.9659  19.2158  19.2158

          k = 0.4000 0.0000 0.0000 (  8542 PWs)   bands (ev):

   -64.2864 -64.2829 -64.2789 -64.2789 -31.1003 -31.1003 -31.0927 -31.0868
   -31.0868 -31.0735 -31.0735 -31.0703 -31.0617 -31.0617 -31.0529 -31.0529
    -8.6035  -8.1253  -7.5280  -7.5280   4.7601   4.7601   4.9403   5.5608
     5.5608   6.0583   6.3469   6.3469   7.1366   7.1366   7.5447   7.5447
    15.3077  16.9480  18.6064  19.1278  19.9456  19.9457

          k = 0.4000 0.0000 0.2000 (  8538 PWs)   bands (ev):

   -64.2857 -64.2825 -64.2796 -64.2793 -31.1033 -31.0972 -31.0966 -31.0953
   -31.0835 -31.0800 -31.0663 -31.0654 -31.0651 -31.0584 -31.0561 -31.0487
    -8.4905  -8.0489  -7.6163  -7.5624   4.6046   4.8051   4.9353   5.0638
     5.6579   5.7140   6.6971   6.8173   6.8340   7.1835   7.3062   7.6583
    15.6414  17.2265  18.7471  18.9614  19.1571  19.2684

          k = 0.4000 0.0000 0.4000 (  8510 PWs)   bands (ev):

   -64.2838 -64.2815 -64.2815 -64.2803 -31.1033 -31.1032 -31.1031 -31.0945
   -31.0869 -31.0750 -31.0750 -31.0645 -31.0568 -31.0549 -31.0549 -31.0480
    -8.2019  -7.8655  -7.8653  -7.6776   4.5832   4.5833   4.6169   4.9879
     5.4318   6.1433   6.1434   6.7441   7.2117   7.2689   7.2690   7.6309
    16.5379  17.7945  17.7945  18.2789  19.6316  19.6318

          k = 0.4000 0.0000-0.4000 (  8510 PWs)   bands (ev):

   -64.2838 -64.2815 -64.2815 -64.2803 -31.1033 -31.1032 -31.1031 -31.0945
   -31.0869 -31.0750 -31.0750 -31.0645 -31.0568 -31.0549 -31.0549 -31.0480
    -8.2019  -7.8655  -7.8653  -7.6776   4.5832   4.5833   4.6169   4.9879
     5.4318   6.1433   6.1434   6.7441   7.2117   7.2689   7.2690   7.6309
    16.5379  17.7945  17.7945  18.2789  19.6318  20.0768

          k = 0.4000 0.0000-0.2000 (  8538 PWs)   bands (ev):

   -64.2857 -64.2825 -64.2796 -64.2793 -31.1033 -31.0972 -31.0966 -31.0953
   -31.0835 -31.0800 -31.0663 -31.0654 -31.0651 -31.0584 -31.0561 -31.0487
    -8.4905  -8.0489  -7.6163  -7.5624   4.6046   4.8051   4.9353   5.0638
     5.6579   5.7140   6.6971   6.8173   6.8340   7.1835   7.3062   7.6583
    15.6414  17.2265  18.7471  18.9615  19.1571  19.2684

          k = 0.4000 0.2000 0.0000 (  8538 PWs)   bands (ev):

   -64.2857 -64.2825 -64.2796 -64.2793 -31.1033 -31.0972 -31.0966 -31.0953
   -31.0835 -31.0800 -31.0663 -31.0654 -31.0651 -31.0584 -31.0561 -31.0487
    -8.4905  -8.0489  -7.6163  -7.5624   4.6046   4.8051   4.9353   5.0638
     5.6579   5.7140   6.6971   6.8173   6.8340   7.1835   7.3062   7.6583
    15.6414  17.2265  18.7471  19.1572  19.2683  20.2428

          k = 0.4000 0.2000 0.2000 (  8510 PWs)   bands (ev):

   -64.2851 -64.2822 -64.2799 -64.2799 -31.1096 -31.1096 -31.1041 -31.0906
   -31.0789 -31.0789 -31.0623 -31.0623 -31.0616 -31.0590 -31.0518 -31.0499
    -8.3874  -7.9848  -7.6321  -7.6321   4.3411   4.3411   4.5446   5.1844
     5.8453   5.8453   6.8372   6.9496   6.9496   7.2024   7.5215   7.5360
    15.7320  17.1039  18.2408  18.2408  19.4441  20.0339

          k = 0.4000 0.2000 0.4000 (  8499 PWs)   bands (ev):

   -64.2835 -64.2815 -64.2815 -64.2806 -31.1157 -31.1135 -31.1135 -31.1059
   -31.0720 -31.0655 -31.0654 -31.0567 -31.0560 -31.0548 -31.0548 -31.0488
    -8.1287  -7.8374  -7.8373  -7.7009   4.0448   4.1381   4.1381   4.4786
     6.1921   6.6031   6.6032   7.1653   7.2498   7.2895   7.2896   7.5890
    16.2058  17.1556  17.1556  17.5297  20.1206  20.3539

          k = 0.4000 0.2000-0.4000 (  8499 PWs)   bands (ev):

   -64.2835 -64.2815 -64.2815 -64.2806 -31.1157 -31.1135 -31.1135 -31.1059
   -31.0720 -31.0655 -31.0654 -31.0567 -31.0560 -31.0548 -31.0548 -31.0488
    -8.1287  -7.8374  -7.8373  -7.7009   4.0448   4.1381   4.1381   4.4786
     6.1921   6.6031   6.6032   7.1653   7.2498   7.2895   7.2896   7.5890
    16.2058  17.1556  17.1556  17.5297  20.1206  20.3554

          k = 0.4000 0.2000-0.2000 (  8510 PWs)   bands (ev):

   -64.2851 -64.2822 -64.2799 -64.2799 -31.1096 -31.1096 -31.1041 -31.0906
   -31.0789 -31.0789 -31.0623 -31.0623 -31.0616 -31.0590 -31.0518 -31.0499
    -8.3874  -7.9848  -7.6321  -7.6321   4.3411   4.3411   4.5446   5.1844
     5.8453   5.8453   6.8372   6.9496   6.9496   7.2024   7.5215   7.5360
    15.7320  17.1039  18.2408  18.2408  19.4441  20.0339

          k = 0.4000 0.4000 0.0000 (  8510 PWs)   bands (ev):

   -64.2838 -64.2815 -64.2815 -64.2803 -31.1033 -31.1032 -31.1031 -31.0945
   -31.0869 -31.0750 -31.0750 -31.0645 -31.0568 -31.0549 -31.0549 -31.0480
    -8.2019  -7.8654  -7.8654  -7.6776   4.5832   4.5833   4.6169   4.9879
     5.4318   6.1434   6.1434   6.7441   7.2117   7.2690   7.2690   7.6309
    16.5379  17.7945  17.7945  18.2789  19.6317  20.0773

          k = 0.4000 0.4000 0.2000 (  8499 PWs)   bands (ev):

   -64.2835 -64.2815 -64.2815 -64.2806 -31.1157 -31.1135 -31.1135 -31.1059
   -31.0720 -31.0655 -31.0655 -31.0567 -31.0560 -31.0548 -31.0548 -31.0488
    -8.1287  -7.8374  -7.8373  -7.7009   4.0448   4.1381   4.1381   4.4786
     6.1921   6.6032   6.6032   7.1653   7.2498   7.2895   7.2895   7.5890
    16.2058  17.1556  17.1556  17.5297  20.1207  20.3553

          k = 0.4000 0.4000 0.4000 (  8465 PWs)   bands (ev):

   -64.2826 -64.2815 -64.2815 -64.2815 -31.1246 -31.1246 -31.1246 -31.1205
   -31.0565 -31.0565 -31.0565 -31.0537 -31.0537 -31.0537 -31.0510 -31.0510
    -7.9569  -7.7913  -7.7913  -7.7912   3.6472   3.6473   3.6473   3.8283
     7.0930   7.0931   7.0931   7.3514   7.3514   7.3515   7.4810   7.4810
    15.9512  16.4583  16.4583  16.4583  20.5584  20.5585

          k = 0.4000 0.4000-0.4000 (  8465 PWs)   bands (ev):

   -64.2826 -64.2815 -64.2815 -64.2815 -31.1246 -31.1246 -31.1246 -31.1205
   -31.0565 -31.0565 -31.0565 -31.0537 -31.0537 -31.0537 -31.0510 -31.0510
    -7.9569  -7.7913  -7.7913  -7.7912   3.6472   3.6473   3.6473   3.8283
     7.0930   7.0931   7.0931   7.3514   7.3514   7.3515   7.4810   7.4810
    15.9512  16.4583  16.4583  16.4583  20.5584  20.5585

          k = 0.4000 0.4000-0.2000 (  8499 PWs)   bands (ev):

   -64.2835 -64.2815 -64.2815 -64.2806 -31.1157 -31.1135 -31.1135 -31.1059
   -31.0720 -31.0655 -31.0655 -31.0567 -31.0560 -31.0548 -31.0548 -31.0488
    -8.1287  -7.8374  -7.8373  -7.7009   4.0448   4.1381   4.1381   4.4786
     6.1921   6.6032   6.6032   7.1653   7.2498   7.2895   7.2895   7.5890
    16.2058  17.1556  17.1556  17.5297  20.1206  20.3554

          k = 0.4000-0.4000 0.0000 (  8510 PWs)   bands (ev):

   -64.2838 -64.2815 -64.2815 -64.2803 -31.1033 -31.1032 -31.1031 -31.0945
   -31.0869 -31.0750 -31.0750 -31.0645 -31.0568 -31.0549 -31.0549 -31.0480
    -8.2019  -7.8654  -7.8654  -7.6776   4.5832   4.5833   4.6169   4.9879
     5.4318   6.1434   6.1434   6.7441   7.2117   7.2690   7.2690   7.6309
    16.5379  17.7945  17.7945  18.2789  19.6319  20.0774

          k = 0.4000-0.4000 0.2000 (  8499 PWs)   bands (ev):

   -64.2835 -64.2815 -64.2815 -64.2806 -31.1157 -31.1135 -31.1135 -31.1059
   -31.0720 -31.0655 -31.0655 -31.0567 -31.0560 -31.0548 -31.0548 -31.0488
    -8.1287  -7.8374  -7.8373  -7.7009   4.0448   4.1381   4.1381   4.4786
     6.1921   6.6032   6.6032   7.1653   7.2498   7.2895   7.2895   7.5890
    16.2058  17.1556  17.1556  17.5297  20.1209  20.3554

          k = 0.4000-0.4000 0.4000 (  8465 PWs)   bands (ev):

   -64.2826 -64.2815 -64.2815 -64.2815 -31.1246 -31.1246 -31.1246 -31.1205
   -31.0565 -31.0565 -31.0565 -31.0537 -31.0537 -31.0537 -31.0510 -31.0510
    -7.9569  -7.7913  -7.7913  -7.7912   3.6472   3.6473   3.6473   3.8283
     7.0930   7.0931   7.0931   7.3514   7.3514   7.3515   7.4810   7.4810
    15.9512  16.4583  16.4583  16.4583  20.5584  20.5585

          k = 0.4000-0.4000-0.4000 (  8465 PWs)   bands (ev):

   -64.2826 -64.2815 -64.2815 -64.2815 -31.1246 -31.1246 -31.1246 -31.1205
   -31.0565 -31.0565 -31.0565 -31.0537 -31.0537 -31.0537 -31.0510 -31.0510
    -7.9569  -7.7913  -7.7913  -7.7912   3.6472   3.6473   3.6473   3.8283
     7.0930   7.0931   7.0931   7.3514   7.3514   7.3515   7.4810   7.4810
    15.9512  16.4583  16.4583  16.4583  20.5584  20.5585

          k = 0.4000-0.4000-0.2000 (  8499 PWs)   bands (ev):

   -64.2835 -64.2815 -64.2815 -64.2806 -31.1157 -31.1135 -31.1135 -31.1059
   -31.0720 -31.0655 -31.0655 -31.0567 -31.0560 -31.0548 -31.0548 -31.0488
    -8.1287  -7.8374  -7.8373  -7.7009   4.0448   4.1381   4.1381   4.4786
     6.1921   6.6032   6.6032   7.1653   7.2498   7.2895   7.2895   7.5890
    16.2058  17.1556  17.1556  17.5297  20.1205  20.3553

          k = 0.4000-0.2000 0.0000 (  8538 PWs)   bands (ev):

   -64.2857 -64.2825 -64.2796 -64.2793 -31.1033 -31.0972 -31.0966 -31.0953
   -31.0835 -31.0800 -31.0663 -31.0654 -31.0651 -31.0584 -31.0561 -31.0487
    -8.4905  -8.0489  -7.6163  -7.5624   4.6046   4.8051   4.9353   5.0638
     5.6579   5.7140   6.6971   6.8173   6.8340   7.1835   7.3062   7.6583
    15.6414  17.2265  18.7471  18.9614  19.1571  19.2684

          k = 0.4000-0.2000 0.2000 (  8510 PWs)   bands (ev):

   -64.2851 -64.2822 -64.2799 -64.2799 -31.1096 -31.1096 -31.1041 -31.0906
   -31.0789 -31.0789 -31.0623 -31.0623 -31.0616 -31.0590 -31.0518 -31.0499
    -8.3874  -7.9848  -7.6321  -7.6321   4.3411   4.3411   4.5446   5.1844
     5.8453   5.8453   6.8372   6.9496   6.9496   7.2024   7.5215   7.5360
    15.7320  17.1039  18.2408  18.2408  19.4441  20.0339

          k = 0.4000-0.2000 0.4000 (  8499 PWs)   bands (ev):

   -64.2835 -64.2815 -64.2815 -64.2806 -31.1157 -31.1135 -31.1135 -31.1059
   -31.0720 -31.0655 -31.0654 -31.0567 -31.0560 -31.0548 -31.0548 -31.0488
    -8.1287  -7.8374  -7.8373  -7.7009   4.0448   4.1381   4.1381   4.4786
     6.1921   6.6031   6.6032   7.1653   7.2498   7.2895   7.2896   7.5890
    16.2058  17.1556  17.1556  17.5297  20.1206  20.3554

          k = 0.4000-0.2000-0.4000 (  8499 PWs)   bands (ev):

   -64.2835 -64.2815 -64.2815 -64.2806 -31.1157 -31.1135 -31.1135 -31.1059
   -31.0720 -31.0655 -31.0654 -31.0567 -31.0560 -31.0548 -31.0548 -31.0488
    -8.1287  -7.8374  -7.8373  -7.7009   4.0448   4.1381   4.1381   4.4786
     6.1921   6.6031   6.6032   7.1653   7.2498   7.2895   7.2896   7.5890
    16.2058  17.1556  17.1556  17.5297  20.1210  20.3534

          k = 0.4000-0.2000-0.2000 (  8510 PWs)   bands (ev):

   -64.2851 -64.2822 -64.2799 -64.2799 -31.1096 -31.1096 -31.1041 -31.0906
   -31.0789 -31.0789 -31.0623 -31.0623 -31.0616 -31.0590 -31.0518 -31.0499
    -8.3874  -7.9848  -7.6321  -7.6321   4.3411   4.3411   4.5446   5.1844
     5.8453   5.8453   6.8372   6.9496   6.9496   7.2024   7.5215   7.5360
    15.7320  17.1039  18.2408  18.2408  19.4441  20.0339

     the Fermi energy is    10.0544 ev

!    total energy              =    -608.51633070 Ry
     estimated scf accuracy    <       0.00000002 Ry
     smearing contrib. (-TS)   =      -0.00000000 Ry
     internal energy E=F+TS    =    -608.51633070 Ry

     The total energy is F=E-TS. E is the sum of the following terms:
     one-electron contribution =    -297.28485513 Ry
     hartree contribution      =     166.02663794 Ry
     xc contribution           =     -97.98764698 Ry
     ewald contribution        =    -379.16241501 Ry
     DFT-D3 Dispersion         =      -0.10805152 Ry

     convergence has been achieved in   8 iterations

     Forces acting on atoms (cartesian axes, Ry/au):

     atom    1 type  1   force =     0.00000019    0.00000064   -0.00000025
     atom    2 type  1   force =     0.00000006    0.00000052   -0.00000001
     atom    3 type  1   force =    -0.00000013    0.00000001   -0.00000018
     atom    4 type  1   force =    -0.00000007   -0.00000112    0.00000051
     atom    5 type  2   force =    -0.00000020    0.00000007   -0.00000054
     atom    6 type  2   force =     0.00000009    0.00000073    0.00000016
     atom    7 type  2   force =    -0.00000012   -0.00000046    0.00000006
     atom    8 type  2   force =     0.00000019   -0.00000039    0.00000026

     Total force =     0.000002     Total SCF correction =     0.000016
     SCF correction compared to forces is large: reduce conv_thr to get better values


     Computing stress (Cartesian axis) and pressure

          total   stress  (Ry/bohr**3)                   (kbar)     P=       12.04
   0.00008183   0.00000000   0.00000000           12.04        0.00        0.00
   0.00000000   0.00008183  -0.00000000            0.00       12.04       -0.00
   0.00000000  -0.00000000   0.00008183            0.00       -0.00       12.04


     BFGS Geometry Optimization

     number of scf cycles    =   1
     number of bfgs steps    =   0

     enthalpy new            =    -608.3450554326 Ry

     new trust radius        =       0.0289649258 bohr
     new conv_thr            =       0.0000010000 Ry

     new unit-cell volume =    494.21904 a.u.^3 (    73.23571 Ang^3 )
     density =      3.65540 g/cm^3

CELL_PARAMETERS (angstrom)
   4.183832667   0.000000098   0.000000009
   0.000000098   4.183832478  -0.000000077
   0.000000009  -0.000000077   4.183832385

ATOMIC_POSITIONS (angstrom)
Mg            0.0000001022        0.0000003378       -0.0000001323
Mg            0.0000000853        2.0919164716        2.0919161466
Mg            2.0919162679        0.0000000143        2.0919161011
Mg            2.0919163455        2.0919156997        0.0000002351
O             2.0919162795        2.0919162856        2.0919158755
O             2.0919163783        0.0000004342        0.0000000867
O            -0.0000000153        2.0919159972       -0.0000000094
O             0.0000001042       -0.0000002420        2.0919163311


     NEW-OLD atomic charge density approx. for the potential
     extrapolated charge   62.74521, renormalised to   64.00000

     total cpu time spent up to now is       49.0 secs

     Self-consistent Calculation

     iteration #  1     ecut=   100.00 Ry     beta= 0.50
     Davidson diagonalization with overlap
     ethr =  1.00E-06,  avg # of iterations =  7.4

     total cpu time spent up to now is       59.2 secs

     total energy              =    -608.46361857 Ry
     estimated scf accuracy    <       0.03047809 Ry

     iteration #  2     ecut=   100.00 Ry     beta= 0.50
     Davidson diagonalization with overlap
     ethr =  4.76E-05,  avg # of iterations =  3.1

     total cpu time spent up to now is       64.3 secs

     total energy              =    -608.51547635 Ry
     estimated scf accuracy    <       0.04068422 Ry

     iteration #  3     ecut=   100.00 Ry     beta= 0.50
     Davidson diagonalization with overlap
     ethr =  4.76E-05,  avg # of iterations =  2.0

     total cpu time spent up to now is       67.9 secs

     total energy              =    -608.51517372 Ry
     estimated scf accuracy    <       0.00904156 Ry

     iteration #  4     ecut=   100.00 Ry     beta= 0.50
     Davidson diagonalization with overlap
     ethr =  1.41E-05,  avg # of iterations =  1.6

     total cpu time spent up to now is       71.2 secs

     total energy              =    -608.51406434 Ry
     estimated scf accuracy    <       0.00282095 Ry

     iteration #  5     ecut=   100.00 Ry     beta= 0.50
     Davidson diagonalization with overlap
     ethr =  4.41E-06,  avg # of iterations =  2.4

     total cpu time spent up to now is       75.4 secs

     total energy              =    -608.51449523 Ry
     estimated scf accuracy    <       0.00003680 Ry

     iteration #  6     ecut=   100.00 Ry     beta= 0.50
     Davidson diagonalization with overlap
     ethr =  5.75E-08,  avg # of iterations =  2.5

     total cpu time spent up to now is       79.0 secs

     total energy              =    -608.51449089 Ry
     estimated scf accuracy    <       0.00002824 Ry

     iteration #  7     ecut=   100.00 Ry     beta= 0.50
     Davidson diagonalization with overlap
     ethr =  4.41E-08,  avg # of iterations =  1.0

     total cpu time spent up to now is       82.2 secs

     total energy              =    -608.51448388 Ry
     estimated scf accuracy    <       0.00001295 Ry

     iteration #  8     ecut=   100.00 Ry     beta= 0.50
     Davidson diagonalization with overlap
     ethr =  2.02E-08,  avg # of iterations =  2.0

     total cpu time spent up to now is       86.4 secs

     End of self-consistent calculation

          k = 0.0000 0.0000 0.0000 (  8409 PWs)   bands (ev):

   -63.9810 -63.9683 -63.9683 -63.9683 -30.8134 -30.8134 -30.8134 -30.7659
   -30.7659 -30.7659 -30.7659 -30.7659 -30.7659 -30.7351 -30.7351 -30.7351
    -8.9852  -7.3856  -7.3856  -7.3856   4.1849   4.1849   4.1849   6.9431
     6.9431   6.9431   6.9431   6.9431   6.9431   8.3045   8.3045   8.3045
    13.2721  17.5585  17.5585  18.5392  18.5392  18.5392

          k =-0.0000 0.0000 0.2013 (  8501 PWs)   bands (ev):

   -63.9798 -63.9695 -63.9683 -63.9683 -30.8088 -30.8088 -30.8068 -30.7704
   -30.7704 -30.7667 -30.7666 -30.7629 -30.7629 -30.7435 -30.7380 -30.7380
    -8.8361  -7.5407  -7.3625  -7.3625   4.3790   4.3790   4.4186   6.5702
     6.5702   6.7901   6.7901   7.0533   7.0533   7.5907   8.1499   8.1499
    14.0936  17.8929  18.1581  18.1581  18.3940  19.1291

          k =-0.0000 0.0000 0.4026 (  8542 PWs)   bands (ev):

   -63.9766 -63.9727 -63.9683 -63.9683 -30.7969 -30.7969 -30.7887 -30.7822
   -30.7822 -30.7679 -30.7679 -30.7645 -30.7552 -30.7552 -30.7457 -30.7457
    -8.4414  -7.9458  -7.3246  -7.3246   4.9348   4.9348   5.1312   5.7497
     5.7497   6.2755   6.5538   6.5538   7.3583   7.3583   7.7744   7.7744
    15.7459  17.3974  18.8914  19.4733  19.4733  20.4222

          k =-0.0000 0.2013 0.0000 (  8501 PWs)   bands (ev):

   -63.9798 -63.9695 -63.9683 -63.9683 -30.8088 -30.8088 -30.8068 -30.7704
   -30.7704 -30.7667 -30.7666 -30.7629 -30.7629 -30.7435 -30.7380 -30.7380
    -8.8361  -7.5407  -7.3625  -7.3624   4.3790   4.3790   4.4186   6.5702
     6.5702   6.7901   6.7901   7.0533   7.0533   7.5907   8.1499   8.1499
    14.0936  17.8929  18.1581  18.1581  18.3940  19.1291

          k =-0.0000 0.2013 0.2013 (  8512 PWs)   bands (ev):

   -63.9787 -63.9694 -63.9694 -63.9684 -30.8052 -30.8052 -30.8044 -30.7800
   -30.7673 -30.7673 -30.7621 -30.7621 -30.7609 -30.7554 -30.7411 -30.7360
    -8.6949  -7.5000  -7.5000  -7.3548   4.5123   4.5123   4.5692   5.9396
     6.6968   6.6968   6.9351   6.9699   6.9699   7.0773   7.9683   8.1852
    14.6873  18.3340  18.4410  18.4410  18.8569  18.8569

          k =-0.0000 0.2013 0.4026 (  8538 PWs)   bands (ev):

   -63.9758 -63.9723 -63.9691 -63.9687 -30.8002 -30.7936 -30.7929 -30.7915
   -30.7787 -30.7751 -30.7602 -30.7591 -30.7587 -30.7516 -30.7491 -30.7411
    -8.3240  -7.8659  -7.4159  -7.3598   4.7800   4.9932   5.1127   5.2464
     5.8681   5.9054   6.9080   7.0299   7.0482   7.4038   7.5299   7.8873
    16.0781  17.6730  19.1098  19.2684  19.5898  19.6165

          k =-0.0000 0.2013-0.4026 (  8538 PWs)   bands (ev):

   -63.9758 -63.9723 -63.9691 -63.9687 -30.8002 -30.7936 -30.7929 -30.7915
   -30.7787 -30.7751 -30.7602 -30.7591 -30.7587 -30.7516 -30.7491 -30.7411
    -8.3240  -7.8659  -7.4159  -7.3598   4.7800   4.9932   5.1127   5.2464
     5.8681   5.9054   6.9080   7.0299   7.0482   7.4038   7.5299   7.8873
    16.0781  17.6730  19.1098  19.2684  19.5898  19.6165

          k =-0.0000 0.2013-0.2013 (  8512 PWs)   bands (ev):

   -63.9787 -63.9694 -63.9694 -63.9684 -30.8052 -30.8052 -30.8044 -30.7800
   -30.7673 -30.7673 -30.7621 -30.7621 -30.7609 -30.7554 -30.7411 -30.7360
    -8.6949  -7.5000  -7.5000  -7.3548   4.5123   4.5123   4.5692   5.9396
     6.6968   6.6968   6.9351   6.9699   6.9699   7.0773   7.9683   8.1852
    14.6873  18.3340  18.4410  18.4410  18.8569  18.8569

          k =-0.0000 0.4026 0.0000 (  8542 PWs)   bands (ev):

   -63.9766 -63.9727 -63.9683 -63.9683 -30.7969 -30.7969 -30.7887 -30.7822
   -30.7822 -30.7679 -30.7679 -30.7645 -30.7552 -30.7552 -30.7457 -30.7457
    -8.4414  -7.9458  -7.3246  -7.3246   4.9348   4.9348   5.1312   5.7497
     5.7497   6.2755   6.5538   6.5538   7.3583   7.3583   7.7744   7.7744
    15.7459  17.3974  18.8914  19.4733  19.4733  20.4222

          k =-0.0000 0.4026 0.2013 (  8538 PWs)   bands (ev):

   -63.9758 -63.9723 -63.9691 -63.9687 -30.8002 -30.7936 -30.7929 -30.7915
   -30.7787 -30.7751 -30.7602 -30.7591 -30.7587 -30.7516 -30.7491 -30.7411
    -8.3240  -7.8659  -7.4159  -7.3598   4.7800   4.9932   5.1127   5.2464
     5.8681   5.9054   6.9080   7.0299   7.0482   7.4038   7.5299   7.8873
    16.0781  17.6730  19.1098  19.2684  19.5898  19.6165

          k =-0.0000 0.4026 0.4026 (  8510 PWs)   bands (ev):

   -63.9737 -63.9712 -63.9711 -63.9698 -30.8003 -30.8002 -30.8001 -30.7908
   -30.7824 -30.7695 -30.7695 -30.7582 -30.7498 -30.7478 -30.7478 -30.7403
    -8.0240  -7.6744  -7.6744  -7.4788   4.7647   4.7647   4.7948   5.1830
     5.6175   6.3424   6.3424   6.9550   7.4292   7.4878   7.4878   7.8564
    16.9707  18.2241  18.2241  18.6735  19.9850  20.4644

          k =-0.0000 0.4026-0.4026 (  8510 PWs)   bands (ev):

   -63.9737 -63.9712 -63.9711 -63.9698 -30.8003 -30.8002 -30.8001 -30.7908
   -30.7824 -30.7695 -30.7695 -30.7582 -30.7498 -30.7478 -30.7478 -30.7403
    -8.0240  -7.6744  -7.6744  -7.4788   4.7647   4.7647   4.7948   5.1830
     5.6175   6.3424   6.3424   6.9550   7.4292   7.4878   7.4878   7.8564
    16.9707  18.2241  18.2241  18.6735  19.9850  19.9852

          k =-0.0000 0.4026-0.2013 (  8538 PWs)   bands (ev):

   -63.9758 -63.9723 -63.9691 -63.9687 -30.8002 -30.7936 -30.7929 -30.7915
   -30.7787 -30.7751 -30.7602 -30.7591 -30.7587 -30.7516 -30.7491 -30.7411
    -8.3240  -7.8659  -7.4159  -7.3598   4.7800   4.9932   5.1127   5.2464
     5.8681   5.9054   6.9080   7.0299   7.0482   7.4038   7.5299   7.8873
    16.0781  17.6730  19.1098  19.2684  19.5898  19.6165

          k = 0.2013-0.0000-0.0000 (  8501 PWs)   bands (ev):

   -63.9798 -63.9695 -63.9683 -63.9683 -30.8088 -30.8088 -30.8068 -30.7704
   -30.7704 -30.7667 -30.7666 -30.7629 -30.7629 -30.7435 -30.7380 -30.7380
    -8.8361  -7.5407  -7.3625  -7.3625   4.3790   4.3790   4.4186   6.5702
     6.5702   6.7901   6.7901   7.0533   7.0533   7.5907   8.1499   8.1499
    14.0936  17.8929  18.1581  18.1581  18.3940  19.1291

          k = 0.2013-0.0000 0.2013 (  8512 PWs)   bands (ev):

   -63.9787 -63.9694 -63.9694 -63.9684 -30.8052 -30.8052 -30.8044 -30.7800
   -30.7673 -30.7673 -30.7621 -30.7621 -30.7609 -30.7554 -30.7411 -30.7360
    -8.6949  -7.5000  -7.5000  -7.3548   4.5123   4.5123   4.5692   5.9396
     6.6968   6.6968   6.9351   6.9699   6.9699   7.0773   7.9683   8.1852
    14.6873  18.3340  18.4410  18.4410  18.8569  18.8569

          k = 0.2013 0.0000 0.4026 (  8538 PWs)   bands (ev):

   -63.9758 -63.9723 -63.9691 -63.9687 -30.8002 -30.7936 -30.7929 -30.7915
   -30.7787 -30.7751 -30.7602 -30.7591 -30.7587 -30.7516 -30.7491 -30.7411
    -8.3240  -7.8659  -7.4159  -7.3598   4.7800   4.9932   5.1127   5.2464
     5.8681   5.9054   6.9080   7.0299   7.0482   7.4038   7.5299   7.8873
    16.0781  17.6730  19.1098  19.2684  19.5898  19.6165

          k = 0.2013-0.0000-0.4026 (  8538 PWs)   bands (ev):

   -63.9758 -63.9723 -63.9691 -63.9687 -30.8002 -30.7936 -30.7929 -30.7915
   -30.7787 -30.7751 -30.7602 -30.7591 -30.7587 -30.7516 -30.7491 -30.7411
    -8.3240  -7.8659  -7.4159  -7.3598   4.7800   4.9932   5.1127   5.2464
     5.8681   5.9054   6.9080   7.0299   7.0482   7.4038   7.5299   7.8873
    16.0781  17.6730  19.1098  19.2684  19.5898  19.6165

          k = 0.2013-0.0000-0.2013 (  8512 PWs)   bands (ev):

   -63.9787 -63.9694 -63.9694 -63.9684 -30.8052 -30.8052 -30.8044 -30.7800
   -30.7673 -30.7673 -30.7621 -30.7621 -30.7609 -30.7554 -30.7411 -30.7360
    -8.6949  -7.5000  -7.5000  -7.3548   4.5123   4.5123   4.5692   5.9396
     6.6968   6.6968   6.9351   6.9699   6.9699   7.0773   7.9683   8.1852
    14.6873  18.3340  18.4410  18.4410  18.8569  18.8569

          k = 0.2013 0.2013 0.0000 (  8512 PWs)   bands (ev):

   -63.9787 -63.9694 -63.9694 -63.9684 -30.8052 -30.8052 -30.8044 -30.7800
   -30.7673 -30.7673 -30.7621 -30.7621 -30.7609 -30.7554 -30.7411 -30.7360
    -8.6949  -7.5000  -7.5000  -7.3548   4.5123   4.5123   4.5692   5.9396
     6.6968   6.6968   6.9351   6.9699   6.9699   7.0773   7.9683   8.1852
    14.6873  18.3340  18.4410  18.4410  18.8569  18.8569

          k = 0.2013 0.2013 0.2013 (  8517 PWs)   bands (ev):

   -63.9777 -63.9694 -63.9694 -63.9694 -30.8058 -30.8058 -30.8058 -30.7711
   -30.7711 -30.7711 -30.7674 -30.7585 -30.7585 -30.7585 -30.7383 -30.7383
    -8.5621  -7.4741  -7.4741  -7.4741   4.5249   4.5249   4.5249   6.3091
     6.3091   6.3091   6.3256   7.1696   7.1696   7.1696   8.0635   8.0635
    15.0806  18.3201  18.3201  18.3202  19.6362  19.6362

          k = 0.2013 0.2013 0.4026 (  8510 PWs)   bands (ev):

   -63.9751 -63.9719 -63.9694 -63.9694 -30.8070 -30.8070 -30.8011 -30.7866
   -30.7737 -30.7737 -30.7557 -30.7557 -30.7551 -30.7522 -30.7445 -30.7424
    -8.2167  -7.7988  -7.4318  -7.4318   4.5116   4.5116   4.7267   5.3842
     6.0391   6.0391   7.0490   7.1640   7.1640   7.4231   7.7467   7.7630
    16.1566  17.5194  18.6187  18.6187  19.8009  20.4547

          k = 0.2013 0.2013-0.4026 (  8510 PWs)   bands (ev):

   -63.9751 -63.9719 -63.9694 -63.9694 -30.8070 -30.8070 -30.8011 -30.7866
   -30.7737 -30.7737 -30.7557 -30.7557 -30.7551 -30.7522 -30.7445 -30.7424
    -8.2167  -7.7988  -7.4318  -7.4318   4.5116   4.5116   4.7267   5.3842
     6.0391   6.0391   7.0490   7.1640   7.1640   7.4231   7.7467   7.7630
    16.1566  17.5194  18.6187  18.6187  19.8009  20.4547

          k = 0.2013 0.2013-0.2013 (  8517 PWs)   bands (ev):

   -63.9777 -63.9694 -63.9694 -63.9694 -30.8058 -30.8058 -30.8058 -30.7711
   -30.7711 -30.7711 -30.7674 -30.7585 -30.7585 -30.7585 -30.7383 -30.7383
    -8.5621  -7.4741  -7.4741  -7.4741   4.5249   4.5249   4.5249   6.3091
     6.3091   6.3091   6.3256   7.1696   7.1696   7.1696   8.0635   8.0635
    15.0806  18.3201  18.3201  18.3202  19.6362  19.6362

          k = 0.2013 0.4026 0.0000 (  8538 PWs)   bands (ev):

   -63.9758 -63.9723 -63.9691 -63.9687 -30.8002 -30.7936 -30.7929 -30.7915
   -30.7787 -30.7751 -30.7602 -30.7591 -30.7587 -30.7516 -30.7491 -30.7411
    -8.3240  -7.8659  -7.4159  -7.3598   4.7800   4.9932   5.1127   5.2464
     5.8681   5.9054   6.9080   7.0299   7.0482   7.4038   7.5299   7.8873
    16.0781  17.6730  19.1098  19.2684  19.5898  19.6165

          k = 0.2013 0.4026 0.2013 (  8510 PWs)   bands (ev):

   -63.9751 -63.9719 -63.9694 -63.9694 -30.8070 -30.8070 -30.8011 -30.7866
   -30.7737 -30.7737 -30.7557 -30.7557 -30.7551 -30.7522 -30.7445 -30.7424
    -8.2167  -7.7988  -7.4318  -7.4318   4.5116   4.5116   4.7267   5.3842
     6.0391   6.0391   7.0490   7.1640   7.1640   7.4231   7.7467   7.7630
    16.1566  17.5194  18.6187  18.6187  19.8009  20.4547

          k = 0.2013 0.4026 0.4026 (  8499 PWs)   bands (ev):

   -63.9733 -63.9711 -63.9711 -63.9702 -30.8138 -30.8114 -30.8114 -30.8032
   -30.7663 -30.7592 -30.7592 -30.7498 -30.7489 -30.7476 -30.7476 -30.7412
    -7.9474  -7.6445  -7.6445  -7.5024   4.2109   4.3092   4.3092   4.6612
     6.3920   6.8104   6.8104   7.3838   7.4678   7.5086   7.5086   7.8134
    16.6116  17.5485  17.5485  17.9107  20.5320  20.5320

          k = 0.2013 0.4026-0.4026 (  8499 PWs)   bands (ev):

   -63.9733 -63.9711 -63.9711 -63.9702 -30.8138 -30.8114 -30.8114 -30.8032
   -30.7663 -30.7592 -30.7592 -30.7498 -30.7489 -30.7476 -30.7476 -30.7412
    -7.9474  -7.6445  -7.6445  -7.5024   4.2109   4.3092   4.3092   4.6612
     6.3920   6.8104   6.8104   7.3838   7.4678   7.5086   7.5086   7.8134
    16.6116  17.5485  17.5485  17.9107  20.5320  20.5321

          k = 0.2013 0.4026-0.2013 (  8510 PWs)   bands (ev):

   -63.9751 -63.9719 -63.9694 -63.9694 -30.8070 -30.8070 -30.8011 -30.7866
   -30.7737 -30.7737 -30.7557 -30.7557 -30.7551 -30.7522 -30.7445 -30.7424
    -8.2167  -7.7988  -7.4318  -7.4318   4.5116   4.5116   4.7267   5.3842
     6.0391   6.0391   7.0490   7.1640   7.1640   7.4231   7.7467   7.7630
    16.1566  17.5194  18.6187  18.6187  19.8009  20.4547

          k = 0.2013-0.4026-0.0000 (  8538 PWs)   bands (ev):

   -63.9758 -63.9723 -63.9691 -63.9687 -30.8002 -30.7936 -30.7929 -30.7915
   -30.7787 -30.7751 -30.7602 -30.7591 -30.7587 -30.7516 -30.7491 -30.7411
    -8.3240  -7.8659  -7.4159  -7.3598   4.7800   4.9932   5.1127   5.2464
     5.8681   5.9054   6.9080   7.0299   7.0482   7.4038   7.5299   7.8873
    16.0781  17.6730  19.1098  19.2684  19.5898  19.6165

          k = 0.2013-0.4026 0.2013 (  8510 PWs)   bands (ev):

   -63.9751 -63.9719 -63.9694 -63.9694 -30.8070 -30.8070 -30.8011 -30.7866
   -30.7737 -30.7737 -30.7557 -30.7557 -30.7551 -30.7522 -30.7445 -30.7424
    -8.2167  -7.7988  -7.4318  -7.4318   4.5116   4.5116   4.7267   5.3842
     6.0391   6.0391   7.0490   7.1640   7.1640   7.4231   7.7467   7.7630
    16.1566  17.5194  18.6187  18.6187  19.8009  20.4547

          k = 0.2013-0.4026 0.4026 (  8499 PWs)   bands (ev):

   -63.9733 -63.9711 -63.9711 -63.9702 -30.8138 -30.8114 -30.8114 -30.8032
   -30.7663 -30.7592 -30.7592 -30.7498 -30.7489 -30.7476 -30.7476 -30.7412
    -7.9474  -7.6445  -7.6445  -7.5024   4.2109   4.3092   4.3092   4.6612
     6.3920   6.8104   6.8104   7.3838   7.4678   7.5086   7.5086   7.8134
    16.6116  17.5485  17.5485  17.9107  20.5320  20.5321

          k = 0.2013-0.4026-0.4026 (  8499 PWs)   bands (ev):

   -63.9733 -63.9711 -63.9711 -63.9702 -30.8138 -30.8114 -30.8114 -30.8032
   -30.7663 -30.7592 -30.7592 -30.7498 -30.7489 -30.7476 -30.7476 -30.7412
    -7.9474  -7.6445  -7.6445  -7.5024   4.2109   4.3092   4.3092   4.6612
     6.3920   6.8104   6.8104   7.3838   7.4678   7.5086   7.5086   7.8134
    16.6116  17.5485  17.5485  17.9107  20.5320  20.5321

          k = 0.2013-0.4026-0.2013 (  8510 PWs)   bands (ev):

   -63.9751 -63.9719 -63.9694 -63.9694 -30.8070 -30.8070 -30.8011 -30.7866
   -30.7737 -30.7737 -30.7557 -30.7557 -30.7551 -30.7522 -30.7445 -30.7424
    -8.2167  -7.7988  -7.4318  -7.4318   4.5116   4.5116   4.7267   5.3842
     6.0391   6.0391   7.0490   7.1640   7.1640   7.4231   7.7467   7.7630
    16.1566  17.5194  18.6187  18.6187  19.8009  20.4547

          k = 0.2013-0.2013-0.0000 (  8512 PWs)   bands (ev):

   -63.9787 -63.9694 -63.9694 -63.9684 -30.8052 -30.8052 -30.8044 -30.7800
   -30.7673 -30.7673 -30.7621 -30.7621 -30.7609 -30.7554 -30.7411 -30.7360
    -8.6949  -7.5000  -7.5000  -7.3548   4.5123   4.5123   4.5692   5.9396
     6.6968   6.6968   6.9351   6.9699   6.9699   7.0773   7.9683   8.1852
    14.6873  18.3340  18.4410  18.4410  18.8569  18.8569

          k = 0.2013-0.2013 0.2013 (  8517 PWs)   bands (ev):

   -63.9777 -63.9694 -63.9694 -63.9694 -30.8058 -30.8058 -30.8058 -30.7711
   -30.7711 -30.7711 -30.7674 -30.7585 -30.7585 -30.7585 -30.7383 -30.7383
    -8.5621  -7.4741  -7.4741  -7.4741   4.5249   4.5249   4.5249   6.3091
     6.3091   6.3091   6.3256   7.1696   7.1696   7.1696   8.0635   8.0635
    15.0806  18.3201  18.3201  18.3202  19.6362  19.6362

          k = 0.2013-0.2013 0.4026 (  8510 PWs)   bands (ev):

   -63.9751 -63.9719 -63.9694 -63.9694 -30.8070 -30.8070 -30.8011 -30.7866
   -30.7737 -30.7737 -30.7557 -30.7557 -30.7551 -30.7522 -30.7445 -30.7424
    -8.2167  -7.7988  -7.4318  -7.4318   4.5116   4.5116   4.7267   5.3842
     6.0391   6.0391   7.0490   7.1640   7.1640   7.4231   7.7467   7.7630
    16.1566  17.5194  18.6187  18.6187  19.8009  20.4547

          k = 0.2013-0.2013-0.4026 (  8510 PWs)   bands (ev):

   -63.9751 -63.9719 -63.9694 -63.9694 -30.8070 -30.8070 -30.8011 -30.7866
   -30.7737 -30.7737 -30.7557 -30.7557 -30.7551 -30.7522 -30.7445 -30.7424
    -8.2167  -7.7988  -7.4318  -7.4318   4.5116   4.5116   4.7267   5.3842
     6.0391   6.0391   7.0490   7.1640   7.1640   7.4231   7.7467   7.7630
    16.1566  17.5194  18.6187  18.6187  19.8009  20.4547

          k = 0.2013-0.2013-0.2013 (  8517 PWs)   bands (ev):

   -63.9777 -63.9694 -63.9694 -63.9694 -30.8058 -30.8058 -30.8058 -30.7711
   -30.7711 -30.7711 -30.7674 -30.7585 -30.7585 -30.7585 -30.7383 -30.7383
    -8.5621  -7.4741  -7.4741  -7.4741   4.5249   4.5249   4.5249   6.3091
     6.3091   6.3091   6.3256   7.1696   7.1696   7.1696   8.0635   8.0635
    15.0806  18.3201  18.3201  18.3202  19.6362  19.6362

          k = 0.4026-0.0000-0.0000 (  8542 PWs)   bands (ev):

   -63.9766 -63.9727 -63.9683 -63.9683 -30.7969 -30.7969 -30.7887 -30.7822
   -30.7822 -30.7679 -30.7679 -30.7645 -30.7552 -30.7552 -30.7457 -30.7457
    -8.4414  -7.9458  -7.3246  -7.3246   4.9348   4.9348   5.1312   5.7497
     5.7497   6.2755   6.5538   6.5538   7.3583   7.3583   7.7744   7.7744
    15.7459  17.3974  18.8914  19.4733  19.4733  20.4222

          k = 0.4026-0.0000 0.2013 (  8538 PWs)   bands (ev):

   -63.9758 -63.9723 -63.9691 -63.9687 -30.8002 -30.7936 -30.7929 -30.7915
   -30.7787 -30.7751 -30.7602 -30.7591 -30.7587 -30.7516 -30.7491 -30.7411
    -8.3240  -7.8659  -7.4159  -7.3598   4.7800   4.9932   5.1127   5.2464
     5.8681   5.9054   6.9080   7.0299   7.0482   7.4038   7.5299   7.8873
    16.0781  17.6730  19.1098  19.2684  19.5898  19.6165

          k = 0.4026-0.0000 0.4026 (  8510 PWs)   bands (ev):

   -63.9737 -63.9712 -63.9711 -63.9698 -30.8002 -30.8002 -30.8001 -30.7908
   -30.7824 -30.7695 -30.7695 -30.7582 -30.7498 -30.7478 -30.7478 -30.7403
    -8.0240  -7.6744  -7.6743  -7.4788   4.7647   4.7648   4.7948   5.1830
     5.6175   6.3424   6.3424   6.9550   7.4292   7.4878   7.4878   7.8564
    16.9707  18.2241  18.2241  18.6735  19.9850  19.9850

          k = 0.4026-0.0000-0.4026 (  8510 PWs)   bands (ev):

   -63.9737 -63.9712 -63.9711 -63.9698 -30.8002 -30.8002 -30.8001 -30.7908
   -30.7824 -30.7695 -30.7695 -30.7582 -30.7498 -30.7478 -30.7478 -30.7403
    -8.0240  -7.6744  -7.6743  -7.4788   4.7647   4.7648   4.7948   5.1830
     5.6175   6.3424   6.3424   6.9550   7.4292   7.4878   7.4878   7.8564
    16.9707  18.2241  18.2241  18.6735  19.9850  19.9852

          k = 0.4026-0.0000-0.2013 (  8538 PWs)   bands (ev):

   -63.9758 -63.9723 -63.9691 -63.9687 -30.8002 -30.7936 -30.7929 -30.7915
   -30.7787 -30.7751 -30.7602 -30.7591 -30.7587 -30.7516 -30.7491 -30.7411
    -8.3240  -7.8659  -7.4159  -7.3598   4.7800   4.9932   5.1127   5.2464
     5.8681   5.9054   6.9080   7.0299   7.0482   7.4038   7.5299   7.8873
    16.0781  17.6730  19.1098  19.2684  19.5898  19.6165

          k = 0.4026 0.2013 0.0000 (  8538 PWs)   bands (ev):

   -63.9758 -63.9723 -63.9691 -63.9687 -30.8002 -30.7936 -30.7929 -30.7915
   -30.7787 -30.7751 -30.7602 -30.7591 -30.7587 -30.7516 -30.7491 -30.7411
    -8.3240  -7.8659  -7.4159  -7.3598   4.7800   4.9932   5.1127   5.2464
     5.8681   5.9054   6.9080   7.0299   7.0482   7.4038   7.5299   7.8873
    16.0781  17.6730  19.1098  19.2684  19.5898  19.6165

          k = 0.4026 0.2013 0.2013 (  8510 PWs)   bands (ev):

   -63.9751 -63.9719 -63.9694 -63.9694 -30.8070 -30.8070 -30.8011 -30.7866
   -30.7737 -30.7737 -30.7557 -30.7557 -30.7551 -30.7522 -30.7445 -30.7424
    -8.2167  -7.7988  -7.4318  -7.4318   4.5116   4.5116   4.7267   5.3842
     6.0391   6.0391   7.0490   7.1640   7.1640   7.4231   7.7467   7.7630
    16.1566  17.5194  18.6187  18.6187  19.8009  20.4547

          k = 0.4026 0.2013 0.4026 (  8499 PWs)   bands (ev):

   -63.9733 -63.9711 -63.9711 -63.9702 -30.8138 -30.8114 -30.8114 -30.8032
   -30.7663 -30.7592 -30.7592 -30.7498 -30.7489 -30.7476 -30.7476 -30.7412
    -7.9474  -7.6445  -7.6445  -7.5024   4.2109   4.3092   4.3092   4.6612
     6.3920   6.8104   6.8104   7.3838   7.4678   7.5086   7.5086   7.8134
    16.6116  17.5485  17.5485  17.9107  20.5320  20.5321

          k = 0.4026 0.2013-0.4026 (  8499 PWs)   bands (ev):

   -63.9733 -63.9711 -63.9711 -63.9702 -30.8138 -30.8114 -30.8114 -30.8032
   -30.7663 -30.7592 -30.7592 -30.7498 -30.7489 -30.7476 -30.7476 -30.7412
    -7.9474  -7.6445  -7.6445  -7.5024   4.2109   4.3092   4.3092   4.6612
     6.3920   6.8104   6.8104   7.3838   7.4678   7.5086   7.5086   7.8134
    16.6116  17.5485  17.5485  17.9107  20.5320  20.5321

          k = 0.4026 0.2013-0.2013 (  8510 PWs)   bands (ev):

   -63.9751 -63.9719 -63.9694 -63.9694 -30.8070 -30.8070 -30.8011 -30.7866
   -30.7737 -30.7737 -30.7557 -30.7557 -30.7551 -30.7522 -30.7445 -30.7424
    -8.2167  -7.7988  -7.4318  -7.4318   4.5116   4.5116   4.7267   5.3842
     6.0391   6.0391   7.0490   7.1640   7.1640   7.4231   7.7467   7.7630
    16.1566  17.5194  18.6187  18.6187  19.8009  20.4547

          k = 0.4026 0.4026 0.0000 (  8510 PWs)   bands (ev):

   -63.9737 -63.9712 -63.9711 -63.9698 -30.8003 -30.8002 -30.8001 -30.7908
   -30.7824 -30.7695 -30.7695 -30.7582 -30.7498 -30.7478 -30.7478 -30.7403
    -8.0240  -7.6744  -7.6744  -7.4788   4.7647   4.7647   4.7948   5.1830
     5.6175   6.3424   6.3424   6.9550   7.4292   7.4878   7.4878   7.8564
    16.9707  18.2241  18.2241  18.6735  19.9850  19.9853

          k = 0.4026 0.4026 0.2013 (  8499 PWs)   bands (ev):

   -63.9733 -63.9711 -63.9711 -63.9702 -30.8138 -30.8114 -30.8114 -30.8032
   -30.7663 -30.7592 -30.7592 -30.7498 -30.7489 -30.7476 -30.7476 -30.7412
    -7.9474  -7.6445  -7.6445  -7.5024   4.2109   4.3092   4.3092   4.6612
     6.3920   6.8104   6.8104   7.3838   7.4678   7.5086   7.5086   7.8134
    16.6116  17.5485  17.5485  17.9107  20.5320  20.5321

          k = 0.4026 0.4026 0.4026 (  8465 PWs)   bands (ev):

   -63.9723 -63.9711 -63.9711 -63.9711 -30.8234 -30.8234 -30.8234 -30.8190
   -30.7495 -30.7495 -30.7494 -30.7465 -30.7465 -30.7465 -30.7435 -30.7435
    -7.7678  -7.5954  -7.5954  -7.5954   3.8071   3.8071   3.8071   3.9948
     7.3077   7.3077   7.3078   7.5710   7.5710   7.5710   7.7030   7.7030
    16.3298  16.8308  16.8308  16.8308  21.0128  21.0129

          k = 0.4026 0.4026-0.4026 (  8465 PWs)   bands (ev):

   -63.9723 -63.9711 -63.9711 -63.9711 -30.8234 -30.8234 -30.8234 -30.8190
   -30.7495 -30.7495 -30.7494 -30.7465 -30.7465 -30.7465 -30.7435 -30.7435
    -7.7678  -7.5954  -7.5954  -7.5954   3.8071   3.8071   3.8071   3.9948
     7.3077   7.3077   7.3078   7.5710   7.5710   7.5710   7.7030   7.7030
    16.3298  16.8308  16.8308  16.8308  21.0128  21.0129

          k = 0.4026 0.4026-0.2013 (  8499 PWs)   bands (ev):

   -63.9733 -63.9711 -63.9711 -63.9702 -30.8138 -30.8114 -30.8114 -30.8032
   -30.7663 -30.7592 -30.7592 -30.7498 -30.7489 -30.7476 -30.7476 -30.7412
    -7.9474  -7.6445  -7.6445  -7.5024   4.2109   4.3092   4.3092   4.6612
     6.3920   6.8104   6.8104   7.3838   7.4678   7.5086   7.5086   7.8134
    16.6116  17.5485  17.5485  17.9107  20.5320  20.5321

          k = 0.4026-0.4026-0.0000 (  8510 PWs)   bands (ev):

   -63.9737 -63.9712 -63.9711 -63.9698 -30.8002 -30.8002 -30.8001 -30.7908
   -30.7824 -30.7695 -30.7695 -30.7582 -30.7498 -30.7478 -30.7478 -30.7403
    -8.0240  -7.6744  -7.6744  -7.4788   4.7647   4.7647   4.7948   5.1830
     5.6175   6.3424   6.3424   6.9550   7.4292   7.4878   7.4878   7.8564
    16.9707  18.2241  18.2241  18.6735  19.9850  20.4647

          k = 0.4026-0.4026 0.2013 (  8499 PWs)   bands (ev):

   -63.9733 -63.9711 -63.9711 -63.9702 -30.8138 -30.8114 -30.8114 -30.8032
   -30.7663 -30.7592 -30.7592 -30.7498 -30.7489 -30.7476 -30.7476 -30.7412
    -7.9474  -7.6445  -7.6445  -7.5024   4.2109   4.3092   4.3092   4.6612
     6.3920   6.8104   6.8104   7.3838   7.4678   7.5086   7.5086   7.8134
    16.6116  17.5485  17.5485  17.9107  20.5320  20.5321

          k = 0.4026-0.4026 0.4026 (  8465 PWs)   bands (ev):

   -63.9723 -63.9711 -63.9711 -63.9711 -30.8234 -30.8234 -30.8234 -30.8190
   -30.7495 -30.7495 -30.7494 -30.7465 -30.7465 -30.7465 -30.7435 -30.7435
    -7.7678  -7.5954  -7.5954  -7.5954   3.8071   3.8071   3.8071   3.9948
     7.3077   7.3078   7.3078   7.5710   7.5710   7.5710   7.7030   7.7030
    16.3298  16.8308  16.8308  16.8308  21.0129  21.0129

          k = 0.4026-0.4026-0.4026 (  8465 PWs)   bands (ev):

   -63.9723 -63.9711 -63.9711 -63.9711 -30.8234 -30.8234 -30.8234 -30.8190
   -30.7495 -30.7495 -30.7494 -30.7465 -30.7465 -30.7465 -30.7435 -30.7435
    -7.7678  -7.5954  -7.5954  -7.5954   3.8071   3.8071   3.8071   3.9948
     7.3077   7.3078   7.3078   7.5710   7.5710   7.5710   7.7030   7.7030
    16.3298  16.8308  16.8308  16.8308  21.0129  21.0129

          k = 0.4026-0.4026-0.2013 (  8499 PWs)   bands (ev):

   -63.9733 -63.9711 -63.9711 -63.9702 -30.8138 -30.8114 -30.8114 -30.8032
   -30.7663 -30.7592 -30.7592 -30.7498 -30.7489 -30.7476 -30.7476 -30.7412
    -7.9474  -7.6445  -7.6445  -7.5024   4.2109   4.3092   4.3092   4.6612
     6.3920   6.8104   6.8104   7.3838   7.4678   7.5086   7.5086   7.8134
    16.6116  17.5485  17.5485  17.9107  20.5320  20.5320

          k = 0.4026-0.2013-0.0000 (  8538 PWs)   bands (ev):

   -63.9758 -63.9723 -63.9691 -63.9687 -30.8002 -30.7936 -30.7929 -30.7915
   -30.7787 -30.7751 -30.7602 -30.7591 -30.7587 -30.7516 -30.7491 -30.7411
    -8.3240  -7.8659  -7.4159  -7.3598   4.7800   4.9932   5.1127   5.2464
     5.8681   5.9054   6.9080   7.0299   7.0482   7.4038   7.5299   7.8873
    16.0781  17.6730  19.1098  19.2684  19.5898  19.6165

          k = 0.4026-0.2013 0.2013 (  8510 PWs)   bands (ev):

   -63.9751 -63.9719 -63.9694 -63.9694 -30.8070 -30.8070 -30.8011 -30.7866
   -30.7737 -30.7737 -30.7557 -30.7557 -30.7551 -30.7522 -30.7445 -30.7424
    -8.2167  -7.7988  -7.4318  -7.4318   4.5116   4.5116   4.7267   5.3842
     6.0391   6.0391   7.0490   7.1640   7.1640   7.4231   7.7467   7.7630
    16.1566  17.5194  18.6187  18.6187  19.8009  20.4547

          k = 0.4026-0.2013 0.4026 (  8499 PWs)   bands (ev):

   -63.9733 -63.9711 -63.9711 -63.9702 -30.8138 -30.8114 -30.8114 -30.8032
   -30.7663 -30.7592 -30.7592 -30.7498 -30.7489 -30.7476 -30.7476 -30.7412
    -7.9474  -7.6445  -7.6445  -7.5024   4.2109   4.3092   4.3092   4.6612
     6.3920   6.8104   6.8104   7.3838   7.4678   7.5086   7.5086   7.8134
    16.6116  17.5485  17.5485  17.9107  20.5320  20.5321

          k = 0.4026-0.2013-0.4026 (  8499 PWs)   bands (ev):

   -63.9733 -63.9711 -63.9711 -63.9702 -30.8138 -30.8114 -30.8114 -30.8032
   -30.7663 -30.7592 -30.7592 -30.7498 -30.7489 -30.7476 -30.7476 -30.7412
    -7.9474  -7.6445  -7.6445  -7.5024   4.2109   4.3092   4.3092   4.6612
     6.3920   6.8104   6.8104   7.3838   7.4678   7.5086   7.5086   7.8134
    16.6116  17.5485  17.5485  17.9107  20.5320  20.5321

          k = 0.4026-0.2013-0.2013 (  8510 PWs)   bands (ev):

   -63.9751 -63.9719 -63.9694 -63.9694 -30.8070 -30.8070 -30.8011 -30.7866
   -30.7737 -30.7737 -30.7557 -30.7557 -30.7551 -30.7522 -30.7445 -30.7424
    -8.2167  -7.7988  -7.4318  -7.4318   4.5116   4.5116   4.7267   5.3842
     6.0391   6.0391   7.0490   7.1640   7.1640   7.4231   7.7467   7.7630
    16.1566  17.5194  18.6187  18.6187  19.8009  20.4547

     the Fermi energy is    10.4907 ev

!    total energy              =    -608.51448605 Ry
     estimated scf accuracy    <       0.00000005 Ry
     smearing contrib. (-TS)   =      -0.00000000 Ry
     internal energy E=F+TS    =    -608.51448605 Ry

     The total energy is F=E-TS. E is the sum of the following terms:
     one-electron contribution =    -293.48241473 Ry
     hartree contribution      =     164.77284903 Ry
     xc contribution           =     -98.07002597 Ry
     ewald contribution        =    -381.62448564 Ry
     DFT-D3 Dispersion         =      -0.11040874 Ry

     convergence has been achieved in   8 iterations

     Forces acting on atoms (cartesian axes, Ry/au):

     atom    1 type  1   force =    -0.00000009   -0.00000037    0.00000008
     atom    2 type  1   force =    -0.00000014   -0.00000018   -0.00000010
     atom    3 type  1   force =    -0.00000010   -0.00000009    0.00000008
     atom    4 type  1   force =    -0.00000013    0.00000019   -0.00000010
     atom    5 type  2   force =    -0.00000023   -0.00000018    0.00000038
     atom    6 type  2   force =     0.00000063   -0.00000040    0.00000058
     atom    7 type  2   force =     0.00000004    0.00000039   -0.00000071
     atom    8 type  2   force =     0.00000001    0.00000064   -0.00000021

     Total force =     0.000002     Total SCF correction =     0.000012
     SCF correction compared to forces is large: reduce conv_thr to get better values


     Computing stress (Cartesian axis) and pressure

          total   stress  (Ry/bohr**3)                   (kbar)     P=       43.84
   0.00029801  -0.00000000  -0.00000000           43.84       -0.00       -0.00
  -0.00000000   0.00029801  -0.00000000           -0.00       43.84       -0.00
  -0.00000000  -0.00000000   0.00029801           -0.00       -0.00       43.84


     number of scf cycles    =   2
     number of bfgs steps    =   1

     enthalpy old            =    -608.3450554326 Ry
     enthalpy new            =    -608.3465044137 Ry

     CASE: enthalpy_new < enthalpy_old

     new trust radius        =       0.0055080066 bohr
     new conv_thr            =       0.0000000100 Ry

     new unit-cell volume =    492.38464 a.u.^3 (    72.96388 Ang^3 )
     density =      3.66901 g/cm^3

CELL_PARAMETERS (angstrom)
   4.178650108  -0.000000164  -0.000000080
  -0.000000164   4.178649555  -0.000000174
  -0.000000080  -0.000000174   4.178649412

ATOMIC_POSITIONS (angstrom)
Mg            0.0000000483        0.0000001098       -0.0000000848
Mg           -0.0000001773        2.0893248513        2.0893245486
Mg            2.0893248849       -0.0000002237        2.0893246221
Mg            2.0893248547        2.0893242280        0.0000000804
O             2.0893246806        2.0893245303        2.0893245294
O             2.0893254918        0.0000000564        0.0000004001
O            -0.0000001235        2.0893247766       -0.0000004967
O             0.0000000683        0.0000001071        2.0893247157


     NEW-OLD atomic charge density approx. for the potential
     extrapolated charge   63.76158, renormalised to   64.00000

     total cpu time spent up to now is       97.2 secs

     Self-consistent Calculation

     iteration #  1     ecut=   100.00 Ry     beta= 0.50
     Davidson diagonalization with overlap
     ethr =  1.00E-06,  avg # of iterations =  2.0

     total cpu time spent up to now is      105.0 secs

     total energy              =    -608.51205933 Ry
     estimated scf accuracy    <       0.00107435 Ry

     iteration #  2     ecut=   100.00 Ry     beta= 0.50
     Davidson diagonalization with overlap
     ethr =  1.68E-06,  avg # of iterations =  3.0

     total cpu time spent up to now is      110.2 secs

     total energy              =    -608.51392859 Ry
     estimated scf accuracy    <       0.00141964 Ry

     iteration #  3     ecut=   100.00 Ry     beta= 0.50
     Davidson diagonalization with overlap
     ethr =  1.68E-06,  avg # of iterations =  2.2

     total cpu time spent up to now is      113.7 secs

     total energy              =    -608.51391582 Ry
     estimated scf accuracy    <       0.00032173 Ry

     iteration #  4     ecut=   100.00 Ry     beta= 0.50
     Davidson diagonalization with overlap
     ethr =  5.03E-07,  avg # of iterations =  1.0

     total cpu time spent up to now is      116.9 secs

     total energy              =    -608.51387680 Ry
     estimated scf accuracy    <       0.00010453 Ry

     iteration #  5     ecut=   100.00 Ry     beta= 0.50
     Davidson diagonalization with overlap
     ethr =  1.63E-07,  avg # of iterations =  2.0

     total cpu time spent up to now is      120.7 secs

     total energy              =    -608.51388839 Ry
     estimated scf accuracy    <       0.00000394 Ry

     iteration #  6     ecut=   100.00 Ry     beta= 0.50
     Davidson diagonalization with overlap
     ethr =  6.16E-09,  avg # of iterations =  2.0

     total cpu time spent up to now is      124.5 secs

     total energy              =    -608.51388885 Ry
     estimated scf accuracy    <       0.00000063 Ry

     iteration #  7     ecut=   100.00 Ry     beta= 0.50
     Davidson diagonalization with overlap
     ethr =  9.86E-10,  avg # of iterations =  1.0

     total cpu time spent up to now is      127.7 secs

     total energy              =    -608.51388857 Ry
     estimated scf accuracy    <       0.00000056 Ry

     iteration #  8     ecut=   100.00 Ry     beta= 0.50
     Davidson diagonalization with overlap
     ethr =  8.70E-10,  avg # of iterations =  2.0

     total cpu time spent up to now is      131.5 secs

     total energy              =    -608.51388861 Ry
     estimated scf accuracy    <       0.00000003 Ry

     iteration #  9     ecut=   100.00 Ry     beta= 0.50
     Davidson diagonalization with overlap
     ethr =  4.66E-11,  avg # of iterations =  2.1

     total cpu time spent up to now is      135.9 secs

     total energy              =    -608.51388862 Ry
     estimated scf accuracy    <       0.00000001 Ry

     iteration # 10     ecut=   100.00 Ry     beta= 0.50
     Davidson diagonalization with overlap
     ethr =  1.62E-11,  avg # of iterations =  2.0

     total cpu time spent up to now is      139.6 secs

     End of self-consistent calculation

          k = 0.0000 0.0000 0.0000 (  8409 PWs)   bands (ev):

   -63.9220 -63.9091 -63.9091 -63.9091 -30.7557 -30.7557 -30.7557 -30.7074
   -30.7074 -30.7074 -30.7074 -30.7074 -30.7074 -30.6762 -30.6762 -30.6762
    -8.9577  -7.3472  -7.3472  -7.3472   4.2164   4.2164   4.2164   6.9845
     6.9845   6.9845   6.9845   6.9845   6.9845   8.3510   8.3510   8.3510
    13.3563  17.6102  17.6102  18.6273  18.6273  18.6273

          k = 0.0000 0.0000 0.2015 (  8501 PWs)   bands (ev):

   -63.9208 -63.9104 -63.9091 -63.9091 -30.7510 -30.7510 -30.7490 -30.7120
   -30.7120 -30.7082 -30.7082 -30.7044 -30.7044 -30.6847 -30.6791 -30.6791
    -8.8076  -7.5033  -7.3237  -7.3237   4.4111   4.4111   4.4516   6.6099
     6.6099   6.8310   6.8310   7.0950   7.0950   7.6366   8.1958   8.1958
    14.1773  17.9454  18.2141  18.2141  18.4823  19.2184

          k = 0.0000 0.0000 0.4031 (  8542 PWs)   bands (ev):

   -63.9176 -63.9136 -63.9091 -63.9091 -30.7389 -30.7389 -30.7306 -30.7240
   -30.7240 -30.7095 -30.7095 -30.7061 -30.6966 -30.6966 -30.6869 -30.6869
[...]
   -30.7179 -30.7107 -30.7107 -30.7011 -30.7003 -30.6990 -30.6990 -30.6925
    -7.9184  -7.6136  -7.6136  -7.4706   4.2376   4.3366   4.3366   4.6906
     6.4240   6.8436   6.8436   7.4188   7.5027   7.5437   7.5437   7.8493
    16.6766  17.6114  17.6114  17.9717  20.5979  20.8566

          k = 0.2015 0.4030-0.4030 (  8311 PWs)   bands (ev):

   -63.9244 -63.9222 -63.9222 -63.9212 -30.7660 -30.7636 -30.7636 -30.7553
   -30.7179 -30.7107 -30.7107 -30.7011 -30.7003 -30.6990 -30.6990 -30.6925
    -7.9184  -7.6136  -7.6136  -7.4706   4.2376   4.3366   4.3366   4.6906
     6.4240   6.8436   6.8436   7.4188   7.5027   7.5437   7.5437   7.8493
    16.6766  17.6114  17.6114  17.9717  20.5979  20.5979

          k = 0.2015 0.4030-0.2015 (  8317 PWs)   bands (ev):

   -63.9262 -63.9230 -63.9204 -63.9204 -30.7591 -30.7591 -30.7531 -30.7385
   -30.7254 -30.7254 -30.7072 -30.7072 -30.7065 -30.7036 -30.6958 -30.6937
    -8.1894  -7.7690  -7.3997  -7.3997   4.5389   4.5389   4.7559   5.4162
     6.0701   6.0701   7.0830   7.1984   7.1984   7.4584   7.7828   7.7994
    16.2247  17.5858  18.6791  18.6791  19.8582  20.5217

          k = 0.2015-0.4030-0.0000 (  8329 PWs)   bands (ev):

   -63.9269 -63.9233 -63.9201 -63.9197 -30.7522 -30.7456 -30.7448 -30.7434
   -30.7304 -30.7268 -30.7117 -30.7106 -30.7102 -30.7030 -30.7005 -30.6923
    -8.2973  -7.8367  -7.3839  -7.3274   4.8082   5.0234   5.1412   5.2757
     5.9018   5.9361   6.9418   7.0639   7.0825   7.4391   7.5658   7.9240
    16.1482  17.7446  19.1678  19.3175  19.6590  19.6721

          k = 0.2015-0.4030 0.2015 (  8317 PWs)   bands (ev):

   -63.9262 -63.9230 -63.9204 -63.9204 -30.7591 -30.7591 -30.7531 -30.7385
   -30.7254 -30.7254 -30.7072 -30.7072 -30.7065 -30.7036 -30.6958 -30.6937
    -8.1894  -7.7690  -7.3997  -7.3997   4.5389   4.5389   4.7559   5.4162
     6.0701   6.0701   7.0830   7.1984   7.1984   7.4584   7.7828   7.7994
    16.2247  17.5858  18.6791  18.6791  19.8582  20.5217

          k = 0.2015-0.4030 0.4030 (  8311 PWs)   bands (ev):

   -63.9244 -63.9222 -63.9222 -63.9212 -30.7660 -30.7636 -30.7636 -30.7553
   -30.7179 -30.7107 -30.7107 -30.7011 -30.7003 -30.6990 -30.6990 -30.6925
    -7.9184  -7.6136  -7.6136  -7.4706   4.2376   4.3366   4.3366   4.6906
     6.4240   6.8436   6.8436   7.4188   7.5027   7.5437   7.5437   7.8493
    16.6766  17.6114  17.6114  17.9717  20.5979  20.5979

          k = 0.2015-0.4030-0.4030 (  8311 PWs)   bands (ev):

   -63.9244 -63.9222 -63.9222 -63.9212 -30.7660 -30.7636 -30.7636 -30.7553
   -30.7179 -30.7107 -30.7107 -30.7011 -30.7003 -30.6990 -30.6990 -30.6925
    -7.9184  -7.6136  -7.6136  -7.4706   4.2376   4.3366   4.3366   4.6906
     6.4240   6.8436   6.8436   7.4188   7.5027   7.5437   7.5437   7.8493
    16.6766  17.6114  17.6114  17.9717  20.5979  20.5979

          k = 0.2015-0.4030-0.2015 (  8317 PWs)   bands (ev):

   -63.9262 -63.9230 -63.9204 -63.9204 -30.7591 -30.7591 -30.7531 -30.7385
   -30.7254 -30.7254 -30.7072 -30.7072 -30.7065 -30.7036 -30.6958 -30.6937
    -8.1894  -7.7690  -7.3997  -7.3997   4.5389   4.5389   4.7559   5.4162
     6.0701   6.0701   7.0830   7.1984   7.1984   7.4584   7.7828   7.7994
    16.2247  17.5858  18.6791  18.6791  19.8582  20.5217

          k = 0.2015-0.2015-0.0000 (  8326 PWs)   bands (ev):

   -63.9298 -63.9204 -63.9204 -63.9194 -30.7573 -30.7573 -30.7565 -30.7318
   -30.7189 -30.7189 -30.7137 -30.7137 -30.7124 -30.7068 -30.6923 -30.6872
    -8.6704  -7.4686  -7.4686  -7.3225   4.5399   4.5399   4.5963   5.9709
     6.7301   6.7301   6.9719   7.0042   7.0042   7.1118   8.0057   8.2230
    14.7568  18.3856  18.4881  18.4881  18.9305  18.9305

          k = 0.2015-0.2015 0.2015 (  8334 PWs)   bands (ev):

   -63.9288 -63.9204 -63.9204 -63.9204 -30.7579 -30.7579 -30.7579 -30.7227
   -30.7227 -30.7227 -30.7190 -30.7099 -30.7099 -30.7099 -30.6895 -30.6895
    -8.5368  -7.4425  -7.4425  -7.4425   4.5524   4.5524   4.5524   6.3411
     6.3411   6.3411   6.3607   7.2043   7.2043   7.2043   8.1009   8.1009
    15.1495  18.3763  18.3763  18.3763  19.7041  19.7041

          k = 0.2015-0.2015 0.4030 (  8317 PWs)   bands (ev):

   -63.9262 -63.9230 -63.9204 -63.9204 -30.7591 -30.7591 -30.7531 -30.7385
   -30.7254 -30.7254 -30.7072 -30.7072 -30.7065 -30.7036 -30.6958 -30.6937
    -8.1894  -7.7690  -7.3997  -7.3997   4.5389   4.5389   4.7559   5.4162
     6.0701   6.0701   7.0830   7.1984   7.1984   7.4584   7.7828   7.7994
    16.2247  17.5858  18.6791  18.6791  19.8582  20.5217

          k = 0.2015-0.2015-0.4030 (  8317 PWs)   bands (ev):

   -63.9262 -63.9230 -63.9204 -63.9204 -30.7591 -30.7591 -30.7531 -30.7385
   -30.7254 -30.7254 -30.7072 -30.7072 -30.7065 -30.7036 -30.6958 -30.6937
    -8.1894  -7.7690  -7.3997  -7.3997   4.5389   4.5389   4.7559   5.4162
     6.0701   6.0701   7.0830   7.1984   7.1984   7.4584   7.7828   7.7994
    16.2247  17.5858  18.6791  18.6791  19.8582  20.5217

          k = 0.2015-0.2015-0.2015 (  8334 PWs)   bands (ev):

   -63.9288 -63.9204 -63.9204 -63.9204 -30.7579 -30.7579 -30.7579 -30.7227
   -30.7227 -30.7227 -30.7190 -30.7099 -30.7099 -30.7099 -30.6895 -30.6895
    -8.5368  -7.4425  -7.4425  -7.4425   4.5524   4.5524   4.5524   6.3411
     6.3411   6.3411   6.3607   7.2043   7.2043   7.2043   8.1009   8.1009
    15.1495  18.3763  18.3763  18.3763  19.7041  19.7041

          k = 0.4030 0.0000 0.0000 (  8337 PWs)   bands (ev):

   -63.9277 -63.9237 -63.9193 -63.9193 -30.7489 -30.7489 -30.7406 -30.7340
   -30.7340 -30.7195 -30.7195 -30.7161 -30.7066 -30.7066 -30.6970 -30.6970
    -8.4155  -7.9171  -7.2920  -7.2920   4.9628   4.9628   5.1618   5.7800
     5.7800   6.3103   6.5870   6.5870   7.3939   7.3939   7.8112   7.8112
    15.8163  17.4695  18.9370  19.5285  19.5285  20.7434

          k = 0.4030 0.0000 0.2015 (  8329 PWs)   bands (ev):

   -63.9269 -63.9233 -63.9201 -63.9197 -30.7522 -30.7456 -30.7448 -30.7434
   -30.7304 -30.7268 -30.7117 -30.7106 -30.7102 -30.7030 -30.7005 -30.6923
    -8.2973  -7.8367  -7.3839  -7.3274   4.8082   5.0234   5.1412   5.2757
     5.9018   5.9361   6.9418   7.0639   7.0825   7.4391   7.5658   7.9240
    16.1482  17.7446  19.1678  19.3175  19.6590  19.6721

          k = 0.4030 0.0000 0.4030 (  8322 PWs)   bands (ev):

   -63.9248 -63.9222 -63.9222 -63.9208 -30.7523 -30.7523 -30.7521 -30.7427
   -30.7342 -30.7211 -30.7211 -30.7097 -30.7012 -30.6991 -30.6991 -30.6916
    -7.9955  -7.6438  -7.6438  -7.4470   4.7939   4.7939   4.8233   5.2144
     5.6473   6.3743   6.3743   6.9888   7.4641   7.5229   7.5229   7.8925
    17.0402  18.2929  18.2929  18.7367  20.0415  20.0415

          k = 0.4030-0.0000-0.4030 (  8322 PWs)   bands (ev):

   -63.9248 -63.9222 -63.9222 -63.9208 -30.7523 -30.7523 -30.7521 -30.7427
   -30.7342 -30.7211 -30.7211 -30.7097 -30.7012 -30.6991 -30.6991 -30.6916
    -7.9955  -7.6438  -7.6438  -7.4470   4.7939   4.7939   4.8233   5.2144
     5.6473   6.3743   6.3743   6.9888   7.4641   7.5229   7.5229   7.8925
    17.0402  18.2929  18.2929  18.7367  20.0415  20.0415

          k = 0.4030 0.0000-0.2015 (  8329 PWs)   bands (ev):

   -63.9269 -63.9233 -63.9201 -63.9197 -30.7522 -30.7456 -30.7448 -30.7434
   -30.7304 -30.7268 -30.7117 -30.7106 -30.7102 -30.7030 -30.7005 -30.6923
    -8.2973  -7.8367  -7.3839  -7.3274   4.8082   5.0234   5.1412   5.2757
     5.9018   5.9361   6.9418   7.0639   7.0825   7.4391   7.5658   7.9240
    16.1482  17.7446  19.1678  19.3175  19.6590  19.6721

          k = 0.4030 0.2015 0.0000 (  8329 PWs)   bands (ev):

   -63.9269 -63.9233 -63.9201 -63.9197 -30.7522 -30.7456 -30.7448 -30.7434
   -30.7304 -30.7268 -30.7117 -30.7106 -30.7102 -30.7030 -30.7005 -30.6923
    -8.2973  -7.8367  -7.3839  -7.3274   4.8082   5.0234   5.1412   5.2757
     5.9018   5.9361   6.9418   7.0639   7.0825   7.4391   7.5658   7.9240
    16.1482  17.7446  19.1678  19.3175  19.6590  19.6721

          k = 0.4030 0.2015 0.2015 (  8317 PWs)   bands (ev):

   -63.9262 -63.9230 -63.9204 -63.9204 -30.7591 -30.7591 -30.7531 -30.7385
   -30.7254 -30.7254 -30.7072 -30.7072 -30.7065 -30.7036 -30.6958 -30.6937
    -8.1894  -7.7690  -7.3997  -7.3997   4.5389   4.5389   4.7559   5.4162
     6.0701   6.0701   7.0830   7.1984   7.1984   7.4584   7.7828   7.7994
    16.2247  17.5858  18.6791  18.6791  19.8582  20.5217

          k = 0.4030 0.2015 0.4030 (  8311 PWs)   bands (ev):

   -63.9244 -63.9222 -63.9222 -63.9212 -30.7660 -30.7636 -30.7636 -30.7553
   -30.7179 -30.7107 -30.7107 -30.7011 -30.7003 -30.6990 -30.6990 -30.6925
    -7.9184  -7.6136  -7.6136  -7.4706   4.2376   4.3366   4.3366   4.6906
     6.4240   6.8436   6.8436   7.4188   7.5027   7.5437   7.5437   7.8493
    16.6766  17.6114  17.6114  17.9717  20.5979  20.8563

          k = 0.4030 0.2015-0.4030 (  8311 PWs)   bands (ev):

   -63.9244 -63.9222 -63.9222 -63.9212 -30.7660 -30.7636 -30.7636 -30.7553
   -30.7179 -30.7107 -30.7107 -30.7011 -30.7003 -30.6990 -30.6990 -30.6925
    -7.9184  -7.6136  -7.6136  -7.4706   4.2376   4.3366   4.3366   4.6906
     6.4240   6.8436   6.8436   7.4188   7.5027   7.5437   7.5437   7.8493
    16.6766  17.6114  17.6114  17.9717  20.5979  20.5979

          k = 0.4030 0.2015-0.2015 (  8317 PWs)   bands (ev):

   -63.9262 -63.9230 -63.9204 -63.9204 -30.7591 -30.7591 -30.7531 -30.7385
   -30.7254 -30.7254 -30.7072 -30.7072 -30.7065 -30.7036 -30.6958 -30.6937
    -8.1894  -7.7690  -7.3997  -7.3997   4.5389   4.5389   4.7559   5.4162
     6.0701   6.0701   7.0830   7.1984   7.1984   7.4584   7.7828   7.7994
    16.2247  17.5858  18.6791  18.6791  19.8582  20.5217

          k = 0.4030 0.4030 0.0000 (  8322 PWs)   bands (ev):

   -63.9248 -63.9222 -63.9222 -63.9208 -30.7523 -30.7523 -30.7521 -30.7427
   -30.7342 -30.7211 -30.7211 -30.7097 -30.7012 -30.6991 -30.6991 -30.6916
    -7.9955  -7.6438  -7.6438  -7.4470   4.7939   4.7939   4.8233   5.2144
     5.6473   6.3743   6.3743   6.9888   7.4641   7.5229   7.5229   7.8925
    17.0402  18.2929  18.2929  18.7367  20.0415  20.5267

          k = 0.4030 0.4030 0.2015 (  8311 PWs)   bands (ev):

   -63.9244 -63.9222 -63.9222 -63.9212 -30.7660 -30.7636 -30.7636 -30.7553
   -30.7179 -30.7107 -30.7107 -30.7011 -30.7003 -30.6990 -30.6990 -30.6925
    -7.9184  -7.6136  -7.6136  -7.4706   4.2376   4.3366   4.3366   4.6906
     6.4240   6.8436   6.8436   7.4188   7.5027   7.5437   7.5437   7.8493
    16.6766  17.6114  17.6114  17.9717  20.5979  20.5979

          k = 0.4030 0.4030 0.4030 (  8306 PWs)   bands (ev):

   -63.9234 -63.9222 -63.9222 -63.9222 -30.7757 -30.7757 -30.7757 -30.7712
   -30.7008 -30.7008 -30.7008 -30.6978 -30.6978 -30.6978 -30.6948 -30.6948
    -7.7376  -7.5640  -7.5640  -7.5640   3.8328   3.8328   3.8328   4.0215
     7.3421   7.3421   7.3421   7.6061   7.6061   7.6061   7.7385   7.7385
    16.3904  16.8904  16.8904  16.8905  21.0856  21.0856

          k = 0.4030 0.4030-0.4030 (  8306 PWs)   bands (ev):

   -63.9234 -63.9222 -63.9222 -63.9222 -30.7757 -30.7757 -30.7757 -30.7712
   -30.7008 -30.7008 -30.7008 -30.6978 -30.6978 -30.6978 -30.6948 -30.6948
    -7.7376  -7.5640  -7.5640  -7.5640   3.8328   3.8328   3.8328   4.0215
     7.3421   7.3421   7.3421   7.6061   7.6061   7.6061   7.7385   7.7385
    16.3904  16.8904  16.8904  16.8905  21.0856  21.0856

          k = 0.4030 0.4030-0.2015 (  8311 PWs)   bands (ev):

   -63.9244 -63.9222 -63.9222 -63.9212 -30.7660 -30.7636 -30.7636 -30.7553
   -30.7179 -30.7107 -30.7107 -30.7011 -30.7003 -30.6990 -30.6990 -30.6925
    -7.9184  -7.6136  -7.6136  -7.4706   4.2376   4.3366   4.3366   4.6906
     6.4240   6.8436   6.8436   7.4188   7.5027   7.5437   7.5437   7.8493
    16.6766  17.6114  17.6114  17.9717  20.5979  20.5979

          k = 0.4030-0.4030-0.0000 (  8322 PWs)   bands (ev):

   -63.9248 -63.9222 -63.9222 -63.9208 -30.7523 -30.7523 -30.7521 -30.7427
   -30.7342 -30.7211 -30.7211 -30.7097 -30.7012 -30.6991 -30.6991 -30.6916
    -7.9955  -7.6438  -7.6438  -7.4470   4.7939   4.7939   4.8233   5.2144
     5.6473   6.3743   6.3743   6.9888   7.4641   7.5229   7.5229   7.8925
    17.0402  18.2929  18.2929  18.7367  20.0415  20.5264

          k = 0.4030-0.4030 0.2015 (  8311 PWs)   bands (ev):

   -63.9244 -63.9222 -63.9222 -63.9212 -30.7660 -30.7636 -30.7636 -30.7553
   -30.7179 -30.7107 -30.7107 -30.7011 -30.7003 -30.6990 -30.6990 -30.6925
    -7.9184  -7.6136  -7.6136  -7.4706   4.2376   4.3366   4.3366   4.6906
     6.4240   6.8436   6.8436   7.4188   7.5027   7.5437   7.5437   7.8493
    16.6766  17.6114  17.6114  17.9717  20.5979  20.8563

          k = 0.4030-0.4030 0.4030 (  8306 PWs)   bands (ev):

   -63.9234 -63.9222 -63.9222 -63.9222 -30.7757 -30.7757 -30.7757 -30.7712
   -30.7008 -30.7008 -30.7008 -30.6978 -30.6978 -30.6978 -30.6948 -30.6948
    -7.7376  -7.5640  -7.5640  -7.5640   3.8328   3.8328   3.8328   4.0215
     7.3421   7.3421   7.3421   7.6061   7.6061   7.6061   7.7385   7.7385
    16.3904  16.8904  16.8904  16.8905  21.0856  21.0856

          k = 0.4030-0.4030-0.4030 (  8306 PWs)   bands (ev):

   -63.9234 -63.9222 -63.9222 -63.9222 -30.7757 -30.7757 -30.7757 -30.7712
   -30.7008 -30.7008 -30.7008 -30.6978 -30.6978 -30.6978 -30.6948 -30.6948
    -7.7376  -7.5640  -7.5640  -7.5640   3.8328   3.8328   3.8328   4.0215
     7.3421   7.3421   7.3421   7.6061   7.6061   7.6061   7.7385   7.7385
    16.3904  16.8904  16.8904  16.8905  21.0856  21.0856

          k = 0.4030-0.4030-0.2015 (  8311 PWs)   bands (ev):

   -63.9244 -63.9222 -63.9222 -63.9212 -30.7660 -30.7636 -30.7636 -30.7553
   -30.7179 -30.7107 -30.7107 -30.7011 -30.7003 -30.6990 -30.6990 -30.6925
    -7.9184  -7.6136  -7.6136  -7.4706   4.2376   4.3366   4.3366   4.6906
     6.4240   6.8436   6.8436   7.4188   7.5027   7.5437   7.5437   7.8493
    16.6766  17.6114  17.6114  17.9717  20.5979  20.8567

          k = 0.4030-0.2015-0.0000 (  8329 PWs)   bands (ev):

   -63.9269 -63.9233 -63.9201 -63.9197 -30.7522 -30.7456 -30.7448 -30.7434
   -30.7304 -30.7268 -30.7117 -30.7106 -30.7102 -30.7030 -30.7005 -30.6923
    -8.2973  -7.8367  -7.3839  -7.3274   4.8082   5.0234   5.1412   5.2757
     5.9018   5.9361   6.9418   7.0639   7.0825   7.4391   7.5658   7.9240
    16.1482  17.7446  19.1678  19.3175  19.6590  19.6721

          k = 0.4030-0.2015 0.2015 (  8317 PWs)   bands (ev):

   -63.9262 -63.9230 -63.9204 -63.9204 -30.7591 -30.7591 -30.7531 -30.7385
   -30.7254 -30.7254 -30.7072 -30.7072 -30.7065 -30.7036 -30.6958 -30.6937
    -8.1894  -7.7690  -7.3997  -7.3997   4.5389   4.5389   4.7559   5.4162
     6.0701   6.0701   7.0830   7.1984   7.1984   7.4584   7.7828   7.7994
    16.2247  17.5858  18.6791  18.6791  19.8582  20.5217

          k = 0.4030-0.2015 0.4030 (  8311 PWs)   bands (ev):

   -63.9244 -63.9222 -63.9222 -63.9212 -30.7660 -30.7636 -30.7636 -30.7553
   -30.7179 -30.7107 -30.7107 -30.7011 -30.7003 -30.6990 -30.6990 -30.6925
    -7.9184  -7.6136  -7.6136  -7.4706   4.2376   4.3366   4.3366   4.6906
     6.4240   6.8436   6.8436   7.4188   7.5027   7.5437   7.5437   7.8493
    16.6766  17.6114  17.6114  17.9717  20.5979  20.8560

          k = 0.4030-0.2015-0.4030 (  8311 PWs)   bands (ev):

   -63.9244 -63.9222 -63.9222 -63.9212 -30.7660 -30.7636 -30.7636 -30.7553
   -30.7179 -30.7107 -30.7107 -30.7011 -30.7003 -30.6990 -30.6990 -30.6925
    -7.9184  -7.6136  -7.6136  -7.4706   4.2376   4.3366   4.3366   4.6906
     6.4240   6.8436   6.8436   7.4188   7.5027   7.5437   7.5437   7.8493
    16.6766  17.6114  17.6114  17.9717  20.5979  20.8558

          k = 0.4030-0.2015-0.2015 (  8317 PWs)   bands (ev):

   -63.9262 -63.9230 -63.9204 -63.9204 -30.7591 -30.7591 -30.7531 -30.7385
   -30.7254 -30.7254 -30.7072 -30.7072 -30.7065 -30.7036 -30.6958 -30.6937
    -8.1894  -7.7690  -7.3997  -7.3997   4.5389   4.5389   4.7559   5.4162
     6.0701   6.0701   7.0830   7.1984   7.1984   7.4584   7.7828   7.7994
    16.2247  17.5858  18.6791  18.6791  19.8582  20.5217

     the Fermi energy is    10.5604 ev

!    total energy              =    -608.51398511 Ry
     estimated scf accuracy    <          1.2E-09 Ry
     smearing contrib. (-TS)   =      -0.00000000 Ry
     internal energy E=F+TS    =    -608.51398511 Ry

     The total energy is F=E-TS. E is the sum of the following terms:
     one-electron contribution =    -292.87799202 Ry
     hartree contribution      =     164.57600865 Ry
     xc contribution           =     -98.08384616 Ry
     ewald contribution        =    -382.01736898 Ry
     DFT-D3 Dispersion         =      -0.11078660 Ry

     convergence has been achieved in  10 iterations

     Forces acting on atoms (cartesian axes, Ry/au):

     atom    1 type  1   force =     0.00000001   -0.00000004    0.00000002
     atom    2 type  1   force =    -0.00000002   -0.00000003   -0.00000001
     atom    3 type  1   force =     0.00000005    0.00000001    0.00000006
     atom    4 type  1   force =     0.00000005    0.00000017   -0.00000008
     atom    5 type  2   force =     0.00000007    0.00000001    0.00000004
     atom    6 type  2   force =    -0.00000014   -0.00000010   -0.00000015
     atom    7 type  2   force =     0.00000002    0.00000004    0.00000014
     atom    8 type  2   force =    -0.00000004   -0.00000005   -0.00000002

     Total force =     0.000000     Total SCF correction =     0.000000
     SCF correction compared to forces is large: reduce conv_thr to get better values


     Computing stress (Cartesian axis) and pressure

          total   stress  (Ry/bohr**3)                   (kbar)     P=       50.04
   0.00034015   0.00000000   0.00000000           50.04        0.00        0.00
   0.00000000   0.00034015   0.00000000            0.00       50.04        0.00
   0.00000000   0.00000000   0.00034015            0.00        0.00       50.04

 
     init_run     :      3.40s CPU      3.49s WALL (       2 calls)
     electrons    :    196.86s CPU    201.12s WALL (       5 calls)
     update_pot   :      1.15s CPU      1.16s WALL (       3 calls)
     forces       :     24.20s CPU     24.27s WALL (       5 calls)
     stress       :     27.55s CPU     27.64s WALL (       5 calls)

     Called by init_run:
     wfcinit      :      2.56s CPU      2.64s WALL (       2 calls)
     potinit      :      0.31s CPU      0.31s WALL (       2 calls)
     hinit0       :      0.49s CPU      0.49s WALL (       2 calls)

     Called by electrons:
     c_bands      :    153.81s CPU    157.42s WALL (      45 calls)
     sum_band     :     24.94s CPU     25.53s WALL (      45 calls)
     v_of_rho     :      0.38s CPU      0.39s WALL (      49 calls)
     mix_rho      :      0.05s CPU      0.06s WALL (      45 calls)

     Called by c_bands:
     init_us_2    :      1.83s CPU      1.93s WALL (    6426 calls)
     cegterg      :    148.17s CPU    151.31s WALL (    2835 calls)

     Called by *egterg:
     cdiaghg      :     17.25s CPU     17.36s WALL (    9997 calls)
     h_psi        :    122.76s CPU    125.76s WALL (   10375 calls)
     g_psi        :      0.45s CPU      0.45s WALL (    7414 calls)

     Called by h_psi:
     h_psi:calbec :      3.46s CPU      3.53s WALL (   10375 calls)
     vloc_psi     :    115.82s CPU    118.68s WALL (   10375 calls)
     add_vuspsi   :      3.06s CPU      3.12s WALL (   10375 calls)

     General routines
     calbec       :      4.21s CPU      4.30s WALL (   11950 calls)
     fft          :      0.34s CPU      0.34s WALL (     614 calls)
     ffts         :      0.02s CPU      0.02s WALL (      45 calls)
     fftw         :    131.45s CPU    134.66s WALL (  661564 calls)
 
     Parallel routines
     fft_scatt_xy :     17.98s CPU     18.42s WALL (  662223 calls)
     fft_scatt_yz :     66.70s CPU     68.41s WALL (  662223 calls)
 
     PWSCF        :   4m13.34s CPU   4m17.89s WALL

 
   This run was terminated on:  13:39: 7   4Feb2024            

=------------------------------------------------------------------------------=
   JOB DONE.
=------------------------------------------------------------------------------=
