# total energy = -49445.0742255 eV	

CRYSTAL	
PRIMVEC	
		5.59833970		0.00000000		0.00000000	
		0.00000000		13.96799751		0.00000000	
		0.00000000		0.00000000		8.69559874	
PRIMCOORD
   70 1	
Si		2.79916985		0.00000000		0.00000000		0.00000000		0.00000000		0.00000000	
Si		0.00000000		6.98399987		4.34779993		0.00000000		0.00000000		0.00000000	
Si		2.72084908		5.25923147		0.00000000		 0.00017378		 0.00069810		-0.00000000	
Si		2.87749062		8.70876772		0.00000000		-0.00017378		-0.00069810		-0.00000000	
Si		0.07832077		12.24323134		4.34779993		-0.00017378		 0.00069810		0.00000000	
Si		5.52001893		1.72476896		4.34779993		 0.00017378		-0.00069810		0.00000000	
Mg		0.94841473		2.42358788		0.00000000		-0.00022200		 0.00033544		-0.00000000	
Mg		4.64992497		11.54441131		0.00000000		 0.00022200		-0.00033544		-0.00000000	
Mg		1.85075512		9.40758775		4.34779993		 0.00022200		 0.00033544		0.00000000	
Mg		3.74758458		4.56041200		4.34779993		-0.00022200		-0.00033544		0.00000000	
Mg		0.88627316		4.51808967		2.81563513		-0.00039581		-0.00003884		 0.00027106	
Mg		4.71206654		9.44991064		5.87996474		 0.00039581		 0.00003884		-0.00027106	
Mg		4.71206654		9.44991064		2.81563513		 0.00039581		 0.00003884		 0.00027106	
Mg		0.88627316		4.51808967		5.87996474		-0.00039581		-0.00003884		-0.00027106	
Mg		1.91289669		11.50208842		1.53216481		 0.00039581		-0.00003884		-0.00027106	
Mg		3.68544301		2.46591076		7.16343450		-0.00039581		 0.00003884		 0.00027106	
Mg		3.68544301		2.46591076		1.53216481		-0.00039581		 0.00003884		-0.00027106	
Mg		1.91289669		11.50208842		7.16343450		 0.00039581		-0.00003884		 0.00027106	
Mg		2.79916985		6.98399987		2.79363477		0.00000000		0.00000000		-0.00005872	
Mg		2.79916985		6.98399987		5.90196341		0.00000000		0.00000000		 0.00005872	
Mg		0.00000000		0.00000000		1.55416516		0.00000000		0.00000000		 0.00005872	
Mg		0.00000000		0.00000000		7.14143470		0.00000000		0.00000000		-0.00005872	
Mg		2.79916985		0.00000000		2.97293895		0.00000000		0.00000000		-0.00029875	
Mg		2.79916985		0.00000000		5.72266091		0.00000000		0.00000000		 0.00029875	
Mg		0.00000000		6.98399987		1.37486098		0.00000000		0.00000000		 0.00029875	
Mg		0.00000000		6.98399987		7.32073777		0.00000000		0.00000000		-0.00029875	
O		1.85982387		5.77129760		1.35755707		-0.00016830		-0.00037112		 0.00005283	
O		3.73851471		8.19670158		7.33804279		 0.00016830		 0.00037112		-0.00005283	
O		3.73851471		8.19670158		1.35755707		 0.00016830		 0.00037112		 0.00005283	
O		1.85982387		5.77129760		7.33804279		-0.00016830		-0.00037112		-0.00005283	
O		0.93934486		12.75529804		2.99024286		 0.00016830		-0.00037112		-0.00005283	
O		4.65899372		1.21270171		5.70535644		-0.00016830		 0.00037112		 0.00005283	
O		4.65899372		1.21270171		2.99024286		-0.00016830		 0.00037112		-0.00005283	
O		0.93934486		12.75529804		5.70535644		 0.00016830		-0.00037112		 0.00005283	
O		2.76048476		3.62092494		0.00000000		-0.00065725		 0.00080814		-0.00000000	
O		2.83785382		10.34707424		0.00000000		 0.00065725		-0.00080814		-0.00000000	
O		0.03868509		10.60492425		4.34779993		 0.00065725		 0.00080814		0.00000000	
O		5.55965461		3.36307605		4.34779993		-0.00065725		-0.00080814		0.00000000	
O		4.43058202		5.78973574		0.00000000		-0.00009886		 0.00056012		0.00000000	
O		1.16775768		8.17826345		0.00000000		 0.00009886		-0.00056012		0.00000000	
O		3.96692697		12.77373505		4.34779993		 0.00009886		 0.00056012		0.00000000	
O		1.63141217		1.19426414		4.34779993		-0.00009886		-0.00056012		0.00000000	
O		1.99524771		1.02064171		1.25773195		-0.00020735		-0.00025564		-0.00024466	
O		3.60309087		12.94735804		7.43786735		 0.00020735		 0.00025564		 0.00024466	
O		3.60309087		12.94735804		1.25773195		 0.00020735		 0.00025564		-0.00024466	
O		1.99524771		1.02064171		7.43786735		-0.00020735		-0.00025564		 0.00024466	
O		0.80392214		8.00464158		3.09006798		 0.00020735		-0.00025564		 0.00024466	
O		4.79441756		5.96335872		5.60553077		-0.00020735		 0.00025564		-0.00024466	
O		4.79441756		5.96335872		3.09006798		-0.00020735		 0.00025564		 0.00024466	
O		0.80392214		8.00464158		5.60553077		 0.00020735		-0.00025564		-0.00024466	
O		5.50064867		3.51784103		1.38433897		 0.00076090		-0.00021959		 0.00004340	
O		0.09769103		10.45015871		7.31125978		-0.00076090		 0.00021959		-0.00004340	
O		0.09769103		10.45015871		1.38433897		-0.00076090		 0.00021959		 0.00004340	
O		5.50064867		3.51784103		7.31125978		 0.00076090		-0.00021959		-0.00004340	
O		2.89686088		10.50184034		2.96345985		-0.00076090		-0.00021959		-0.00004340	
O		2.70147882		3.46615884		5.73213890		 0.00076090		 0.00021959		 0.00004340	
O		2.70147882		3.46615884		2.96345985		 0.00076090		 0.00021959		-0.00004340	
O		2.89686088		10.50184034		5.73213890		-0.00076090		-0.00021959		 0.00004340	
O		1.09548311		12.86159427		0.00000000		-0.00006842		 0.00053501		0.00000000	
O		4.50285659		1.10640491		0.00000000		 0.00006842		-0.00053501		0.00000000	
O		1.70368674		5.87759496		4.34779993		 0.00006842		 0.00053501		0.00000000	
O		3.89465296		8.09040479		4.34779993		-0.00006842		-0.00053501		0.00000000	
H		5.16782682		4.22671680		0.94347307		 0.00008849		-0.00023849		-0.00042569	
H		0.43051176		9.74128238		7.75212679		-0.00008849		 0.00023849		 0.00042569	
H		0.43051176		9.74128238		0.94347307		-0.00008849		 0.00023849		-0.00042569	
H		5.16782682		4.22671680		7.75212679		 0.00008849		-0.00023849		 0.00042569	
H		3.22968161		11.21071667		3.40432686		-0.00008849		-0.00023849		 0.00042569	
H		2.36865809		2.75728307		5.29127189		 0.00008849		 0.00023849		-0.00042569	
H		2.36865809		2.75728307		3.40432686		 0.00008849		 0.00023849		 0.00042569	
H		3.22968161		11.21071667		5.29127189		-0.00008849		-0.00023849		-0.00042569	
