# total energy = -49443.474312 eV	

CRYSTAL	
PRIMVEC	
		4.70769478		0.00000000		0.00000000	
		0.00000000		13.96799876		0.00000000	
		0.00000000		0.00000000		8.69560186	
PRIMCOORD
   70 1	
Si		2.35384692		0.00000000		0.00000000		0.00000000		0.00000000		0.00000000	
Si		0.00000000		6.98399985		4.34779999		0.00000000		0.00000000		0.00000000	
Si		2.28798674		5.25923183		0.00000000		 0.00028977		-0.00003544		-0.00000000	
Si		2.41970804		8.70876740		0.00000000		-0.00028977		 0.00003544		-0.00000000	
Si		0.06586112		12.24323120		4.34779999		-0.00028977		-0.00003544		-0.00000000	
Si		4.64183366		1.72476897		4.34779999		 0.00028977		 0.00003544		-0.00000000	
Mg		0.79753104		2.42358812		0.00000000		-0.00024160		-0.00022759		-0.00000000	
Mg		3.91016374		11.54441158		0.00000000		 0.00024160		 0.00022759		-0.00000000	
Mg		1.55631682		9.40758750		4.34779999		 0.00024160		-0.00022759		0.00000000	
Mg		3.15137796		4.56041173		4.34779999		-0.00024160		 0.00022759		0.00000000	
Mg		0.74527516		4.51809002		2.81563506		-0.00003419		-0.00035844		 0.00032979	
Mg		3.96241962		9.44991062		5.87996492		 0.00003419		 0.00035844		-0.00032979	
Mg		3.96241962		9.44991062		2.81563506		 0.00003419		 0.00035844		 0.00032979	
Mg		0.74527516		4.51809002		5.87996492		-0.00003419		-0.00035844		-0.00032979	
Mg		1.60857176		11.50208846		1.53216493		 0.00003419		-0.00035844		-0.00032979	
Mg		3.09912302		2.46591077		7.16343458		-0.00003419		 0.00035844		 0.00032979	
Mg		3.09912302		2.46591077		1.53216493		-0.00003419		 0.00035844		-0.00032979	
Mg		1.60857176		11.50208846		7.16343458		 0.00003419		-0.00035844		 0.00032979	
Mg		2.35384692		6.98399985		2.79363506		0.00000000		0.00000000		-0.00042532	
Mg		2.35384692		6.98399985		5.90196351		0.00000000		0.00000000		 0.00042532	
Mg		0.00000000		0.00000000		1.55416493		0.00000000		0.00000000		 0.00042532	
Mg		0.00000000		0.00000000		7.14143458		0.00000000		0.00000000		-0.00042532	
Mg		2.35384692		0.00000000		2.97293891		0.00000000		0.00000000		-0.00011515	
Mg		2.35384692		0.00000000		5.72266060		0.00000000		0.00000000		 0.00011515	
Mg		0.00000000		6.98399985		1.37486108		0.00000000		0.00000000		 0.00011515	
Mg		0.00000000		6.98399985		7.32073749		0.00000000		0.00000000		-0.00011515	
O		1.56394281		5.77129767		1.35755700		 0.00026826		-0.00015700		-0.00001615	
O		3.14375197		8.19670155		7.33804251		-0.00026826		 0.00015700		 0.00001615	
O		3.14375197		8.19670155		1.35755700		-0.00026826		 0.00015700		-0.00001615	
O		1.56394281		5.77129767		7.33804251		 0.00026826		-0.00015700		 0.00001615	
O		0.78990411		12.75529846		2.99024299		-0.00026826		-0.00015700		 0.00001615	
O		3.91779067		1.21270218		5.70535652		 0.00026826		 0.00015700		-0.00001615	
O		3.91779067		1.21270218		2.99024299		 0.00026826		 0.00015700		 0.00001615	
O		0.78990411		12.75529846		5.70535652		-0.00026826		-0.00015700		-0.00001615	
O		2.32131675		3.62092485		0.00000000		 0.00041715		-0.00033559		-0.00000000	
O		2.38637709		10.34707437		0.00000000		-0.00041715		 0.00033559		0.00000000	
O		0.03253017		10.60492470		4.34779999		-0.00041715		-0.00033559		0.00000000	
O		4.67516461		3.36307594		4.34779999		 0.00041715		 0.00033559		-0.00000000	
O		3.72571673		5.78973583		0.00000000		-0.00018991		 0.00046228		-0.00000000	
O		0.98197805		8.17826340		0.00000000		 0.00018991		-0.00046228		-0.00000000	
O		3.33582497		12.77373521		4.34779999		 0.00018991		 0.00046228		0.00000000	
O		1.37186887		1.19426402		4.34779999		-0.00018991		-0.00046228		0.00000000	
O		1.67782195		1.02064188		1.25773175		 0.00007192		 0.00001279		-0.00000652	
O		3.02987189		12.94735829		7.43786776		-0.00007192		-0.00001279		 0.00000652	
O		3.02987189		12.94735829		1.25773175		-0.00007192		-0.00001279		-0.00000652	
O		1.67782195		1.02064188		7.43786776		 0.00007192		 0.00001279		 0.00000652	
O		0.67602497		8.00464173		3.09006777		-0.00007192		 0.00001279		 0.00000652	
O		4.03166981		5.96335891		5.60553080		 0.00007192		-0.00001279		-0.00000652	
O		4.03166981		5.96335891		3.09006777		 0.00007192		-0.00001279		 0.00000652	
O		0.67602497		8.00464173		5.60553080		-0.00007192		 0.00001279		-0.00000652	
O		4.62554598		3.51784093		1.38433908		 0.00026361		-0.00012436		 0.00019447	
O		0.08214880		10.45015830		7.31125949		-0.00026361		 0.00012436		-0.00019447	
O		0.08214880		10.45015830		1.38433908		-0.00026361		 0.00012436		 0.00019447	
O		4.62554598		3.51784093		7.31125949		 0.00026361		-0.00012436		-0.00019447	
O		2.43599667		10.50184031		2.96345997		-0.00026361		-0.00012436		-0.00019447	
O		2.27169812		3.46615892		5.73213860		 0.00026361		 0.00012436		 0.00019447	
O		2.27169812		3.46615892		2.96345997		 0.00026361		 0.00012436		-0.00019447	
O		2.43599667		10.50184031		5.73213860		-0.00026361		-0.00012436		 0.00019447	
O		0.92120219		12.86159445		0.00000000		 0.00054575		-0.00006195		0.00000000	
O		3.78649260		1.10640478		0.00000000		-0.00054575		 0.00006195		0.00000000	
O		1.43264615		5.87759460		4.34779999		-0.00054575		-0.00006195		0.00000000	
O		3.27504864		8.09040463		4.34779999		 0.00054575		 0.00006195		0.00000000	
H		4.34567258		4.22671667		0.94347288		-0.00008085		 0.00046324		-0.00003385	
H		0.36202220		9.74128256		7.75212663		 0.00008085		-0.00046324		 0.00003385	
H		0.36202220		9.74128256		0.94347288		 0.00008085		-0.00046324		-0.00003385	
H		4.34567258		4.22671667		7.75212663		-0.00008085		 0.00046324		 0.00003385	
H		2.71586865		11.21071652		3.40432664		 0.00008085		 0.00046324		 0.00003385	
H		1.99182613		2.75728271		5.29127193		-0.00008085		-0.00046324		-0.00003385	
H		1.99182613		2.75728271		3.40432664		-0.00008085		-0.00046324		 0.00003385	
H		2.71586865		11.21071652		5.29127193		 0.00008085		 0.00046324		-0.00003385	
