# total energy = -49448.0116532 eV	

CRYSTAL	
PRIMVEC	
		5.21663466		0.00000000		0.00000000	
		0.00000000		13.96799836		0.00000000	
		0.00000000		0.00000000		8.69559788	
PRIMCOORD
   70 1	
Si		2.60831681		0.00000000		0.00000000		0.00000000		0.00000000		0.00000000	
Si		0.00000000		6.98399970		4.34779946		0.00000000		0.00000000		0.00000000	
Si		2.53533661		5.25923161		0.00000000		-0.00039715		-0.00001835		0.00000000	
Si		2.68129805		8.70876727		0.00000000		 0.00039715		 0.00001835		0.00000000	
Si		0.07298124		12.24323131		4.34779946		 0.00039715		-0.00001835		0.00000000	
Si		5.14365342		1.72476914		4.34779946		-0.00039715		 0.00001835		0.00000000	
Mg		0.88375008		2.42358795		0.00000000		 0.00070308		-0.00012735		0.00000000	
Mg		4.33288458		11.54441146		0.00000000		-0.00070308		 0.00012735		0.00000000	
Mg		1.72456673		9.40758713		4.34779946		-0.00070308		-0.00012735		0.00000000	
Mg		3.49206689		4.56041175		4.34779946		 0.00070308		 0.00012735		0.00000000	
Mg		0.82584491		4.51808972		2.81563474		 0.00003624		 0.00013948		 0.00069222	
Mg		4.39078870		9.44991021		5.87996471		-0.00003624		-0.00013948		-0.00069222	
Mg		4.39078870		9.44991021		2.81563474		-0.00003624		-0.00013948		 0.00069222	
Mg		0.82584491		4.51808972		5.87996471		 0.00003624		 0.00013948		-0.00069222	
Mg		1.78247190		11.50208838		1.53216472		-0.00003624		 0.00013948		-0.00069222	
Mg		3.43416276		2.46591103		7.16343472		 0.00003624		-0.00013948		 0.00069222	
Mg		3.43416276		2.46591103		1.53216472		 0.00003624		-0.00013948		-0.00069222	
Mg		1.78247190		11.50208838		7.16343472		-0.00003624		 0.00013948		 0.00069222	
Mg		2.60831681		6.98399970		2.79363462		0.00000000		0.00000000		-0.00036434	
Mg		2.60831681		6.98399970		5.90196378		0.00000000		0.00000000		 0.00036434	
Mg		0.00000000		0.00000000		1.55416484		0.00000000		0.00000000		 0.00036434	
Mg		0.00000000		0.00000000		7.14143461		0.00000000		0.00000000		-0.00036434	
Mg		2.60831681		0.00000000		2.97293870		0.00000000		0.00000000		 0.00028560	
Mg		2.60831681		0.00000000		5.72266074		0.00000000		0.00000000		-0.00028560	
Mg		0.00000000		6.98399970		1.37486076		0.00000000		0.00000000		-0.00028560	
Mg		0.00000000		6.98399970		7.32073764		0.00000000		0.00000000		 0.00028560	
O		1.73301768		5.77129751		1.35755666		 0.00005040		 0.00027135		-0.00002114	
O		3.48361698		8.19670137		7.33804226		-0.00005040		-0.00027135		 0.00002114	
O		3.48361698		8.19670137		1.35755666		-0.00005040		-0.00027135		-0.00002114	
O		1.73301768		5.77129751		7.33804226		 0.00005040		 0.00027135		 0.00002114	
O		0.87529913		12.75529826		2.99024280		-0.00005040		 0.00027135		 0.00002114	
O		4.34133553		1.21270167		5.70535664		 0.00005040		-0.00027135		-0.00002114	
O		4.34133553		1.21270167		2.99024280		 0.00005040		-0.00027135		 0.00002114	
O		0.87529913		12.75529826		5.70535664		-0.00005040		 0.00027135		-0.00002114	
O		2.57226986		3.62092454		0.00000000		 0.00033576		 0.00001982		-0.00000000	
O		2.64436375		10.34707434		0.00000000		-0.00033576		-0.00001982		-0.00000000	
O		0.03604695		10.60492425		4.34779946		-0.00033576		 0.00001982		0.00000000	
O		5.18058771		3.36307568		4.34779946		 0.00033576		-0.00001982		0.00000000	
O		4.12849684		5.78973571		0.00000000		-0.00053479		-0.00008646		-0.00000000	
O		1.08813782		8.17826370		0.00000000		 0.00053479		 0.00008646		-0.00000000	
O		3.69645463		12.77373541		4.34779946		 0.00053479		-0.00008646		0.00000000	
O		1.52018003		1.19426400		4.34779946		-0.00053479		 0.00008646		0.00000000	
O		1.85920911		1.02064187		1.25773166		 0.00024035		-0.00019754		-0.00009447	
O		3.35742554		12.94735805		7.43786726		-0.00024035		 0.00019754		 0.00009447	
O		3.35742554		12.94735805		1.25773166		-0.00024035		 0.00019754		-0.00009447	
O		1.85920911		1.02064187		7.43786726		 0.00024035		-0.00019754		 0.00009447	
O		0.74910874		8.00464158		3.09006780		-0.00024035		-0.00019754		 0.00009447	
O		4.46752592		5.96335835		5.60553060		 0.00024035		 0.00019754		-0.00009447	
O		4.46752592		5.96335835		3.09006780		 0.00024035		 0.00019754		 0.00009447	
O		0.74910874		8.00464158		5.60553060		-0.00024035		-0.00019754		-0.00009447	
O		5.12560491		3.51784071		1.38433886		 0.00003968		-0.00024769		 0.00061054	
O		0.09102975		10.45015817		7.31125954		-0.00003968		 0.00024769		-0.00061054	
O		0.09102975		10.45015817		1.38433886		-0.00003968		 0.00024769		 0.00061054	
O		5.12560491		3.51784071		7.31125954		 0.00003968		-0.00024769		-0.00061054	
O		2.69934760		10.50184041		2.96345956		-0.00003968		-0.00024769		-0.00061054	
O		2.51728705		3.46615899		5.73213884		 0.00003968		 0.00024769		 0.00061054	
O		2.51728705		3.46615899		2.96345956		 0.00003968		 0.00024769		-0.00061054	
O		2.69934760		10.50184041		5.73213884		-0.00003968		-0.00024769		 0.00061054	
O		1.02079107		12.86159397		0.00000000		 0.00009773		 0.00040024		0.00000000	
O		4.19584359		1.10640491		0.00000000		-0.00009773		-0.00040024		-0.00000000	
O		1.58752574		5.87759479		4.34779946		-0.00009773		 0.00040024		-0.00000000	
O		3.62910892		8.09040462		4.34779946		 0.00009773		-0.00040024		0.00000000	
H		4.81547545		4.22671668		0.94347272		-0.00005081		 0.00088553		 0.00029617	
H		0.40115921		9.74128221		7.75212672		 0.00005081		-0.00088553		-0.00029617	
H		0.40115921		9.74128221		0.94347272		 0.00005081		-0.00088553		 0.00029617	
H		4.81547545		4.22671668		7.75212672		-0.00005081		 0.00088553		-0.00029617	
H		3.00947706		11.21071638		3.40432674		 0.00005081		 0.00088553		-0.00029617	
H		2.20715760		2.75728303		5.29127166		-0.00005081		-0.00088553		 0.00029617	
H		2.20715760		2.75728303		3.40432674		-0.00005081		-0.00088553		-0.00029617	
H		3.00947706		11.21071638		5.29127166		 0.00005081		 0.00088553		 0.00029617	
