# total energy = -49446.4227825 eV	

CRYSTAL	
PRIMVEC	
		5.47110486		0.00000000		0.00000000	
		0.00000000		13.96799880		0.00000000	
		0.00000000		0.00000000		8.69559899	
PRIMCOORD
   70 1	
Si		2.73555188		0.00000000		0.00000000		0.00000000		0.00000000		0.00000000	
Si		0.00000000		6.98399994		4.34780004		0.00000000		0.00000000		0.00000000	
Si		2.65901167		5.25923195		0.00000000		 0.00028101		 0.00040395		0.00000000	
Si		2.81209319		8.70876794		0.00000000		-0.00028101		-0.00040395		0.00000000	
Si		0.07654076		12.24323189		4.34780004		-0.00028101		 0.00040395		-0.00000000	
Si		5.39456410		1.72476909		4.34780004		 0.00028101		-0.00040395		-0.00000000	
Mg		0.92685987		2.42358784		0.00000000		-0.00039545		 0.00062663		0.00000000	
Mg		4.54424499		11.54441150		0.00000000		 0.00039545		-0.00062663		0.00000000	
Mg		1.80869310		9.40758779		4.34780004		 0.00039545		 0.00062663		0.00000000	
Mg		3.66241176		4.56041210		4.34780004		-0.00039545		-0.00062663		0.00000000	
Mg		0.86613116		4.51808982		2.81563518		 0.00003932		-0.00000758		 0.00027556	
Mg		4.60497370		9.44991061		5.87996490		-0.00003932		 0.00000758		-0.00027556	
Mg		4.60497370		9.44991061		2.81563518		-0.00003932		 0.00000758		 0.00027556	
Mg		0.86613116		4.51808982		5.87996490		 0.00003932		-0.00000758		-0.00027556	
Mg		1.86942182		11.50208867		1.53216486		-0.00003932		-0.00000758		-0.00027556	
Mg		3.60168304		2.46591067		7.16343468		 0.00003932		 0.00000758		 0.00027556	
Mg		3.60168304		2.46591067		1.53216486		 0.00003932		 0.00000758		-0.00027556	
Mg		1.86942182		11.50208867		7.16343468		-0.00003932		-0.00000758		 0.00027556	
Mg		2.73555188		6.98399994		2.79363477		0.00000000		0.00000000		-0.00016220	
Mg		2.73555188		6.98399994		5.90196367		0.00000000		0.00000000		 0.00016220	
Mg		0.00000000		0.00000000		1.55416472		0.00000000		0.00000000		 0.00016220	
Mg		0.00000000		0.00000000		7.14143482		0.00000000		0.00000000		-0.00016220	
Mg		2.73555188		0.00000000		2.97293875		0.00000000		0.00000000		-0.00030206	
Mg		2.73555188		0.00000000		5.72266079		0.00000000		0.00000000		 0.00030206	
Mg		0.00000000		6.98399994		1.37486075		0.00000000		0.00000000		 0.00030206	
Mg		0.00000000		6.98399994		7.32073770		0.00000000		0.00000000		-0.00030206	
O		1.81755575		5.77129782		1.35755674		 0.00019367		-0.00016421		 0.00003742	
O		3.65354912		8.19670152		7.33804280		-0.00019367		 0.00016421		-0.00003742	
O		3.65354912		8.19670152		1.35755674		-0.00019367		 0.00016421		 0.00003742	
O		1.81755575		5.77129782		7.33804280		 0.00019367		-0.00016421		-0.00003742	
O		0.91799723		12.75529886		2.99024276		-0.00019367		-0.00016421		-0.00003742	
O		4.55310763		1.21270212		5.70535678		 0.00019367		 0.00016421		 0.00003742	
O		4.55310763		1.21270212		2.99024276		 0.00019367		 0.00016421		-0.00003742	
O		0.91799723		12.75529886		5.70535678		-0.00019367		-0.00016421		 0.00003742	
O		2.69774710		3.62092492		0.00000000		-0.00038638		 0.00029256		-0.00000000	
O		2.77335777		10.34707497		0.00000000		 0.00038638		-0.00029256		-0.00000000	
O		0.03780479		10.60492486		4.34780004		 0.00038638		 0.00029256		-0.00000000	
O		5.43330007		3.36307612		4.34780004		-0.00038638		-0.00029256		-0.00000000	
O		4.32988710		5.78973599		0.00000000		-0.00018872		 0.00029633		-0.00000000	
O		1.14121776		8.17826390		0.00000000		 0.00018872		-0.00029633		-0.00000000	
O		3.87676965		12.77373593		4.34780004		 0.00018872		 0.00029633		-0.00000000	
O		1.59433521		1.19426395		4.34780004		-0.00018872		-0.00029633		-0.00000000	
O		1.94990177		1.02064172		1.25773205		-0.00010752		-0.00011610		 0.00020963	
O		3.52120309		12.94735871		7.43786803		 0.00010752		 0.00011610		-0.00020963	
O		3.52120309		12.94735871		1.25773205		 0.00010752		 0.00011610		 0.00020963	
O		1.94990177		1.02064172		7.43786803		-0.00010752		-0.00011610		-0.00020963	
O		0.78565121		8.00464167		3.09006799		 0.00010752		-0.00011610		-0.00020963	
O		4.68545366		5.96335877		5.60553100		-0.00010752		 0.00011610		 0.00020963	
O		4.68545366		5.96335877		3.09006799		-0.00010752		 0.00011610		-0.00020963	
O		0.78565121		8.00464167		5.60553100		 0.00010752		-0.00011610		 0.00020963	
O		5.37563408		3.51784109		1.38433889		 0.00020053		 0.00003743		-0.00039900	
O		0.09547078		10.45015879		7.31125955		-0.00020053		-0.00003743		 0.00039900	
O		0.09547078		10.45015879		1.38433889		-0.00020053		-0.00003743		-0.00039900	
O		5.37563408		3.51784109		7.31125955		 0.00020053		 0.00003743		 0.00039900	
O		2.83102266		10.50184049		2.96346006		-0.00020053		 0.00003743		 0.00039900	
O		2.64008220		3.46615885		5.73213893		 0.00020053		-0.00003743		-0.00039900	
O		2.64008220		3.46615885		2.96346006		 0.00020053		-0.00003743		 0.00039900	
O		2.83102266		10.50184049		5.73213893		-0.00020053		 0.00003743		-0.00039900	
O		1.07058580		12.86159477		0.00000000		 0.00008826		 0.00048467		0.00000000	
O		4.40051906		1.10640512		0.00000000		-0.00008826		-0.00048467		0.00000000	
O		1.66496608		5.87759482		4.34780004		-0.00008826		 0.00048467		0.00000000	
O		3.80613768		8.09040507		4.34780004		 0.00008826		-0.00048467		0.00000000	
H		5.05037690		4.22671683		0.94347288		 0.00004237		-0.00060816		-0.00011244	
H		0.42072796		9.74128251		7.75212665		-0.00004237		 0.00060816		 0.00011244	
H		0.42072796		9.74128251		0.94347288		-0.00004237		 0.00060816		-0.00011244	
H		5.05037690		4.22671683		7.75212665		 0.00004237		-0.00060816		 0.00011244	
H		3.15627985		11.21071678		3.40432716		-0.00004237		-0.00060816		 0.00011244	
H		2.31482392		2.75728311		5.29127183		 0.00004237		 0.00060816		-0.00011244	
H		2.31482392		2.75728311		3.40432716		 0.00004237		 0.00060816		 0.00011244	
H		3.15627985		11.21071678		5.29127183		-0.00004237		-0.00060816		-0.00011244	
