# total energy = -10069.2035342 eV

CRYSTAL
PRIMVEC
		4.81948570		0.00000000		0.00000000
		0.00000000		4.81948570		0.00000000
		0.00000000		0.00000000		4.81948570
PRIMECORD
   12 1
Mg		0.00000531		0.00000000		0.00000000		 0.00000239		-0.00000161		-0.00000031
Mg		2.40974719		0.00000000		2.40974092		-0.00000329		 0.00000009		 0.00000007
Mg		0.00000000		2.40974816		2.40975009		 0.00000353		 0.00000091		-0.00000061
Mg		2.40974188		2.40974671		-0.00000724		-0.00000300		-0.00000105		 0.00000121
O		0.43011584		2.83985820		4.38937276		 0.00017326		 0.00017415		-0.00017316
O		4.38936358		1.97962025		0.43012694		-0.00017195		-0.00017131		 0.00017133
O		1.97961977		1.97962073		1.97961832		-0.00017124		-0.00017017		-0.00017137
O		2.83986062		2.83985965		2.83985917		 0.00017125		 0.00017265		 0.00017146
O		4.38937083		0.43012211		2.83986544		-0.00017023		 0.00016937		 0.00017081
O		0.43012211		4.38936841		1.97962894		 0.00016994		-0.00017049		-0.00017058
O		2.83986448		4.38936793		0.43011391		 0.00017142		-0.00017328		 0.00017325
O		1.97962556		0.43012115		4.38936407		-0.00017210		 0.00017077		-0.00017211
