# total energy = -10069.2472272 eV

CRYSTAL
PRIMVEC
		4.91143212		0.00000000		0.00000000
		0.00000000		4.91143212		0.00000000
		0.00000000		0.00000000		4.91143212
PRIMECORD
   12 1
Mg		0.00000000		0.00000000		0.00000000		-0.00000015		-0.00000315		-0.00000256
Mg		2.45571703		0.00000000		2.45571558		 0.00000091		-0.00000157		 0.00000111
Mg		0.00000000		2.45571413		2.45571220		 0.00000086		 0.00000180		 0.00000295
Mg		2.45571944		2.45571220		0.00000000		-0.00000091		 0.00000303		-0.00000157
O		0.43378124		2.88948861		4.47765861		-0.00001186		-0.00000819		 0.00000947
O		4.47765233		2.02193193		0.43378124		 0.00001111		 0.00001189		-0.00001060
O		2.02193289		2.02192855		2.02193048		 0.00001524		 0.00001633		 0.00001591
O		2.88949923		2.88948861		2.88949488		-0.00001496		-0.00001145		-0.00001371
O		4.47765330		0.43378413		2.88949488		 0.00001161		-0.00001289		-0.00001019
O		0.43378027		4.47766103		2.02193579		-0.00001119		 0.00000801		 0.00001124
O		2.88949681		4.47766006		0.43378172		-0.00001301		 0.00001039		-0.00001402
O		2.02193676		0.43378462		4.47765427		 0.00001236		-0.00001422		 0.00001197
