# total energy = -41274.567607 eV	

CRYSTAL	
PRIMVEC	
		8.07890444		0.00000000		0.00000000	
		0.00000000		8.07890444		0.00000000	
		0.00000000		0.00000000		8.07890444	
PRIMCOORD
   56 1	
Si		1.00986245		1.00986245		1.00986326		 0.00000028		 0.00000005		-0.00000080	
Si		7.06904281		7.06903956		7.06903956		-0.00000112		-0.00000060		 0.00000116	
Si		5.04931548		1.00986082		5.04931548		 0.00000021		-0.00000002		 0.00000104	
Si		3.02958978		7.06904119		3.02958734		 0.00000063		-0.00000043		-0.00000117	
Si		1.00986163		5.04931467		5.04931386		 0.00000029		 0.00000001		 0.00000113	
Si		7.06904362		3.02958815		3.02958896		-0.00000108		 0.00000051		-0.00000126	
Si		5.04931548		5.04931548		1.00986163		-0.00000025		-0.00000032		-0.00000103	
Si		3.02958978		3.02958653		7.06904200		 0.00000098		 0.00000090		 0.00000114	
Mg		4.03945060		4.03945060		4.03945303		 0.00000122		 0.00000039		-0.00000047	
Mg		2.01972489		6.05918036		0.00000000		 0.00000076		-0.00000060		 0.00000002	
Mg		6.05918036		2.01972489		0.00000000		-0.00000044		 0.00000053		 0.00000054	
Mg		6.05918118		0.00000000		2.01972814		-0.00000105		 0.00000033		-0.00000103	
Mg		2.01972571		0.00000000		6.05917712		 0.00000096		-0.00000068		 0.00000144	
Mg		0.00000000		2.01972327		6.05917630		-0.00000123		 0.00000093		 0.00000148	
Mg		0.00000000		6.05918036		2.01972652		-0.00000077		-0.00000109		-0.00000126	
Mg		4.03945141		0.00000000		0.00000000		 0.00000066		-0.00000027		 0.00000027	
Mg		2.01972571		2.01972408		4.03945303		 0.00000049		 0.00000035		-0.00000062	
Mg		6.05917955		6.05917793		4.03945141		-0.00000057		-0.00000051		 0.00000008	
Mg		6.05917955		4.03944897		6.05917630		-0.00000018		 0.00000036		 0.00000105	
Mg		2.01972571		4.03945222		2.01972814		 0.00000036		 0.00000007		-0.00000162	
Mg		0.00000000		4.03945303		0.00000000		-0.00000063		 0.00000002		 0.00000025	
Mg		4.03945060		2.01972408		2.01972814		 0.00000114		 0.00000036		-0.00000147	
Mg		4.03945060		6.05917712		6.05917468		 0.00000082		-0.00000017		 0.00000137	
Mg		0.00000000		0.00000000		4.03945303		-0.00000115		-0.00000026		-0.00000012	
O		1.97460368		1.97460287		1.97460287		-0.00005804		-0.00005789		-0.00005707	
O		6.10430158		6.10429914		6.10430077		 0.00005788		 0.00005782		 0.00005722	
O		4.08457587		0.04512040		6.01405671		 0.00005782		 0.00005836		-0.00005872	
O		3.99432938		8.03378242		2.06484611		-0.00005818		-0.00005815		 0.00005840	
O		0.04512203		6.01405509		4.08457425		 0.00005799		-0.00005742		 0.00005768	
O		8.03378323		2.06484692		3.99432938		-0.00005749		 0.00005762		-0.00005778	
O		6.01405671		4.08457506		0.04512121		-0.00005799		 0.00005798		 0.00005792	
O		2.06484936		3.99432695		8.03378161		 0.00005778		-0.00005793		-0.00005780	
O		8.03378323		3.99432857		2.06484773		-0.00005784		-0.00005801		 0.00005855	
O		0.04512203		4.08457425		6.01405509		 0.00005818		 0.00005767		-0.00005835	
O		3.99433020		2.06484611		8.03378242		-0.00005825		 0.00005792		-0.00005797	
O		4.08457506		6.01405671		0.04512040		 0.00005805		-0.00005818		 0.00005804	
O		2.06484854		8.03378161		3.99432695		 0.00005749		-0.00005755		-0.00005763	
O		6.01405671		0.04512121		4.08457587		-0.00005727		 0.00005754		 0.00005753	
O		1.97460287		6.01405428		6.01405509		-0.00005828		-0.00005777		-0.00005852	
O		6.10430239		2.06484773		2.06484854		 0.00005814		 0.00005772		 0.00005824	
O		4.08457506		4.08457425		1.97460287		 0.00005779		 0.00005814		-0.00005762	
O		3.99433020		3.99432776		6.10430077		-0.00005848		-0.00005835		 0.00005784	
O		0.04512284		1.97460368		0.04512203		 0.00005799		-0.00005816		 0.00005768	
O		8.03378323		6.10429833		8.03378079		-0.00005806		 0.00005849		-0.00005790	
O		8.03378323		8.03378079		6.10429914		-0.00005757		-0.00005784		 0.00005739	
O		0.04512203		0.04512203		1.97460368		 0.00005833		 0.00005817		-0.00005771	
O		3.99433020		6.10430077		3.99432776		-0.00005809		 0.00005786		-0.00005788	
O		4.08457506		1.97460205		4.08457506		 0.00005766		-0.00005807		 0.00005823	
O		6.01405671		1.97460124		6.01405590		-0.00005780		-0.00005802		-0.00005833	
O		2.06484936		6.10430077		2.06484692		 0.00005787		 0.00005825		 0.00005847	
O		1.97460287		4.08457425		4.08457506		-0.00005810		 0.00005777		 0.00005797	
O		6.10430239		3.99432857		3.99432857		 0.00005798		-0.00005799		-0.00005785	
O		6.10430158		8.03377917		8.03377998		 0.00005845		-0.00005800		-0.00005796	
O		1.97460368		0.04512284		0.04512284		-0.00005842		 0.00005824		 0.00005789	
O		6.01405671		6.01405509		1.97460124		-0.00005727		-0.00005742		-0.00005715	
O		2.06484936		2.06484692		6.10430158		 0.00005738		 0.00005736		 0.00005703	
