# total energy = -7658.37510214 eV	

CRYSTAL	
PRIMVEC	
		5.32691222		0.00000000		0.00000554	
		-2.66345334		4.61323679		0.00000554	
		0.00000554		0.00000554		4.37374003	
PRIMCOORD
   15 1	
Mg		0.00000000		0.00000000		0.00000000		-0.00000056		-0.00000138		-0.00000037	
Mg		0.00000000		3.07548916		-0.07057744		 0.00000291		 0.00000277		-0.00016648	
Mg		2.66345999		1.53775262		4.44432744		-0.00000196		-0.00000148		 0.00016583	
O		0.86754842		1.54926231		1.04715077		 0.00005363		-0.00000698		-0.00014166	
O		1.79591157		3.06398002		3.32659591		-0.00005843		 0.00000918		 0.00015931	
O		0.88798696		4.58992208		1.04716573		-0.00002318		 0.00006341		-0.00018696	
O		1.77547137		0.02332025		3.32658428		 0.00002322		-0.00006295		 0.00018681	
O		-1.75553039		3.08728975		1.04713193		-0.00001516		-0.00003333		-0.00006766	
O		4.41898982		1.52595370		3.32662251		 0.00001200		 0.00003101		 0.00005221	
H		0.63831525		1.66908937		1.97908379		-0.00011693		-0.00020676		 0.00002815	
H		2.02514584		2.94415352		2.39467231		 0.00012109		 0.00020502		-0.00004448	
H		0.89882955		4.33148998		1.97907271		 0.00023799		-0.00001139		 0.00007121	
H		1.76462877		0.28175070		2.39467730		-0.00023761		 0.00001092		-0.00007035	
H		-1.53713483		3.22590421		1.97910540		-0.00013602		 0.00019628		-0.00003962	
H		4.20059371		1.38733812		2.39464018		 0.00013899		-0.00019431		 0.00005405	
