# total energy = -7656.77035942 eV	

CRYSTAL	
PRIMVEC	
		5.99287667		0.00000000		0.00000554	
		-2.99643833		5.18998489		-0.00001108	
		0.00000554		-0.00001108		6.43597754	
PRIMCOORD
   15 1	
Mg		0.00000000		0.00000665		0.00000000		 0.00000200		-0.00000253		-0.00000442	
Mg		0.00000000		3.45998605		-0.00919147		 0.00000026		 0.00000093		 0.00010282	
Mg		2.99644277		1.72998167		6.44516236		 0.00000046		 0.00000312		-0.00011185	
O		0.99262751		1.73337812		0.97740998		 0.00019210		-0.00017291		-0.00101259	
O		2.00382911		3.45658240		5.45845065		-0.00019928		 0.00018195		 0.00140492	
O		0.99897272		5.18295541		0.97740000		 0.00005939		 0.00024735		-0.00098543	
O		1.99746838		0.00705165		5.45854374		-0.00005653		-0.00025872		 0.00110074	
O		-1.99158305		3.46366120		0.97744932		-0.00025604		-0.00008015		-0.00117716	
O		4.98805131		1.72632480		5.45852656		 0.00024887		 0.00007884		 0.00116367	
H		0.97572505		1.74026964		1.94092111		 0.00036079		-0.00004747		 0.00096170	
H		2.02069943		3.44970971		4.49514841		-0.00035279		 0.00004412		-0.00133827	
H		1.00145717		5.16481848		1.94092609		-0.00013906		 0.00033865		 0.00093438	
H		1.99498449		0.02512430		4.49508026		 0.00013850		-0.00033457		-0.00104904	
H		-1.97719275		3.47483402		1.94087346		-0.00021889		-0.00028628		 0.00111980	
H		4.97361113		1.71512262		4.49509743		 0.00022024		 0.00028768		-0.00110925	
