# total energy = -7658.58472889 eV	

CRYSTAL	
PRIMVEC	
		5.42697172		0.00000000		0.00000554	
		-2.71348586		4.69989334		-0.00000554	
		0.00000554		0.00000000		4.49232764	
PRIMCOORD
   15 1	
Mg		0.00000000		0.00000000		0.00000000		 0.00000043		-0.00000015		-0.00000018	
Mg		0.00000000		3.13326371		-0.04746108		 0.00000163		 0.00000003		-0.00019689	
Mg		2.71349195		1.56663130		4.53978872		-0.00000188		 0.00000042		 0.00019661	
O		0.89158896		1.57417496		1.04362855		-0.00005111		 0.00000292		-0.00038821	
O		1.82190188		3.12572004		3.44869854		 0.00005083		-0.00000249		 0.00039027	
O		0.90441790		4.68495063		1.04360915		 0.00002292		-0.00005702		-0.00031666	
O		1.80907350		0.01494604		3.44871183		-0.00002271		 0.00005306		 0.00034201	
O		-1.79600797		3.14066664		1.04360472		 0.00003919		 0.00004995		-0.00030655	
O		4.50950048		1.55922892		3.44873123		-0.00004285		-0.00005203		 0.00027852	
H		0.76506652		1.64436677		1.99873887		-0.00032855		 0.00014444		 0.00006267	
H		1.94842432		3.05552824		2.49358988		 0.00032901		-0.00014480		-0.00006436	
H		0.90689293		4.54027353		1.99875771		 0.00003923		-0.00034748		-0.00000444	
H		1.80659847		0.15961981		2.49357713		-0.00003961		 0.00035083		-0.00001944	
H		-1.67194782		3.21514805		1.99875826		 0.00027864		 0.00020708		-0.00001360	
H		4.38543756		1.48474529		2.49356217		-0.00027519		-0.00020473		 0.00004024	
