# total energy = -14249.9089705 eV

CRYSTAL
PRIMVEC
		8.50299970		0.00000000		0.00000000
		0.00000000		7.73000050		0.00000000
		0.00000000		0.00000000		5.01000143
PRIMECORD
   24 1
Ca		2.80598990		1.31410034		2.55509954		 0.00020365		-0.00012073		-0.00015710
Ca		5.69700980		6.41590016		2.55509954		-0.00020365		 0.00012073		-0.00015710
Ca		1.44550995		5.17909974		2.45490019		-0.00020365		-0.00012073		 0.00015710
Ca		7.05748975		2.55089991		2.45490019		 0.00020365		 0.00012073		 0.00015710
Si		1.19041996		2.78279967		4.75949966		-0.00007327		-0.00046159		 0.00010415
Si		7.31257974		4.94719998		4.75949966		 0.00007327		 0.00046159		 0.00010415
Si		3.06107989		6.64779992		0.25050007		 0.00007327		-0.00046159		-0.00010415
Si		5.44191981		1.08219973		0.25050007		-0.00007327		 0.00046159		-0.00010415
Mg		0.00000000		0.00000000		0.00000000		0.00000000		0.00000000		 0.00014223
Mg		4.25149985		3.86500025		0.00000000		0.00000000		0.00000000		-0.00014223
O		4.25149985		0.00000000		0.95189976		0.00000000		0.00000000		 0.00043498
O		0.00000000		3.86500025		4.05809997		0.00000000		0.00000000		-0.00043498
O		1.19041996		2.78279967		1.30260003		 0.00057092		 0.00020826		 0.00010408
O		7.31257974		4.94719998		1.30260003		-0.00057092		-0.00020826		 0.00010408
O		3.06107989		6.64779992		3.70739970		-0.00057092		 0.00020826		-0.00010408
O		5.44191981		1.08219973		3.70739970		 0.00057092		-0.00020826		-0.00010408
O		0.68023998		1.39140026		4.05809997		 0.00055303		-0.00068896		-0.00001013
O		7.82275972		6.33859939		4.05809997		-0.00055303		 0.00068896		-0.00001013
O		1.53053995		7.11159944		0.95189976		 0.00014408		 0.00020149		-0.00064545
O		6.97245975		0.61840021		0.95189976		-0.00014408		-0.00020149		-0.00064545
O		3.57125987		5.25639966		0.95189976		-0.00055303		-0.00068896		 0.00001013
O		4.93173983		2.47359999		0.95189976		 0.00055303		 0.00068896		 0.00001013
O		2.72095990		3.24660004		4.05809997		-0.00014408		 0.00020149		 0.00064545
O		5.78203980		4.48339961		4.05809997		 0.00014408		-0.00020149		 0.00064545
