# total energy = -14250.2042082 eV

CRYSTAL
PRIMVEC
		8.30975001		0.00000000		0.00000000
		0.00000000		7.73000368		0.00000000
		0.00000000		0.00000000		5.00999814
PRIMECORD
   24 1
Ca		2.74221833		1.31409971		2.55510021		-0.00026330		 0.00016810		 0.00062127
Ca		5.56753167		6.41589981		2.55510021		 0.00026330		-0.00016810		 0.00062127
Ca		1.41265833		5.17909989		2.45490042		 0.00026330		 0.00016810		-0.00062127
Ca		6.89709167		2.55089963		2.45490042		-0.00026330		-0.00016810		-0.00062127
Si		1.16336500		2.78279983		4.75949989		-0.00007628		-0.00036849		 0.00008879
Si		7.14638501		4.94719969		4.75949989		 0.00007628		 0.00036849		 0.00008879
Si		2.99151000		6.64780001		0.25049991		 0.00007628		-0.00036849		-0.00008879
Si		5.31824000		1.08220035		0.25049991		-0.00007628		 0.00036849		-0.00008879
Mg		0.00000000		0.00000000		0.00000000		0.00000000		0.00000000		-0.00034638
Mg		4.15487500		3.86500018		0.00000000		0.00000000		0.00000000		 0.00034638
O		4.15487500		0.00000000		0.95190014		0.00000000		0.00000000		 0.00086347
O		0.00000000		3.86500018		4.05809965		0.00000000		0.00000000		-0.00086347
O		1.16336500		2.78279983		1.30259985		 0.00047499		 0.00013749		 0.00066334
O		7.14638501		4.94719969		1.30259985		-0.00047499		-0.00013749		 0.00066334
O		2.99151000		6.64780001		3.70739995		-0.00047499		 0.00013749		-0.00066334
O		5.31824000		1.08220035		3.70739995		 0.00047499		-0.00013749		-0.00066334
O		0.66478000		1.39140033		4.05809965		 0.00066046		-0.00063345		-0.00024074
O		7.64497001		6.33860002		4.05809965		-0.00066046		 0.00063345		-0.00024074
O		1.49575500		7.11160039		0.95190014		 0.00026440		-0.00020530		-0.00018002
O		6.81399501		0.61839996		0.95190014		-0.00026440		 0.00020530		-0.00018002
O		3.49009500		5.25639968		0.95190014		-0.00066046		-0.00063345		 0.00024074
O		4.81965500		2.47359985		0.95190014		 0.00066046		 0.00063345		 0.00024074
O		2.65912000		3.24660022		4.05809965		-0.00026440		-0.00020530		 0.00018002
O		5.65063000		4.48340014		4.05809965		 0.00026440		 0.00020530		 0.00018002
