# total energy = -22469.9890949 eV	

CRYSTAL	
PRIMVEC	
		9.73970004		0.00000000		0.00000000	
		0.00000000		8.91739665		0.00000000	
		-1.43536881		0.00000000		5.05028771	
PRIMCOORD
   40 1	
Mg		-0.35884269		8.09771323		1.26257095		-0.00000006		 0.00013495		 0.00000006	
Mg		-1.07652807		0.81968829		3.78771188		 0.00000006		-0.00013495		-0.00000006	
Mg		4.51100733		3.63901296		1.26257095		-0.00000007		 0.00013607		 0.00000004	
Mg		3.79332195		5.27838758		3.78771188		 0.00000007		-0.00013607		-0.00000004	
Ca		-0.35884269		2.68841824		1.26257095		 0.00000003		 0.00051345		 0.00000004	
Ca		-1.07652807		6.22898328		3.78771188		-0.00000003		-0.00051345		-0.00000004	
Ca		4.51100733		7.14711851		1.26257095		 0.00000003		 0.00051185		 0.00000009	
Ca		3.79332195		1.77028204		3.78771188		-0.00000003		-0.00051185		-0.00000009	
Si		2.45818828		0.83101264		1.15833279		-0.00051359		-0.00035443		 0.00035921	
Si		5.84614100		8.08638791		3.89195005		 0.00051359		 0.00035443		-0.00035921	
Si		6.56382638		0.83101264		1.36680912		 0.00051419		-0.00035501		-0.00035890	
Si		1.74050290		8.08638791		3.68347372		-0.00051419		 0.00035501		 0.00035890	
Si		7.32803928		5.28971291		1.15833279		-0.00053283		-0.00036632		 0.00035105	
Si		0.97629098		3.62768764		3.89195005		 0.00053283		 0.00036632		-0.00035105	
Si		1.69397636		5.28971291		1.36680912		 0.00053328		-0.00036682		-0.00035078	
Si		6.61035293		3.62768764		3.68347372		-0.00053328		 0.00036682		 0.00035078	
O		0.92170288		0.77492170		0.71643286		 0.00014495		-0.00074196		-0.00056778	
O		7.38262640		8.14247787		4.33384998		-0.00014495		 0.00074196		 0.00056778	
O		8.10031081		0.77492170		1.80870807		-0.00014535		-0.00074197		 0.00056761	
O		0.20401847		8.14247787		3.24157476		 0.00014535		 0.00074197		-0.00056761	
O		5.79155387		5.23362198		0.71643286		 0.00015821		-0.00074064		-0.00056366	
O		2.51277638		3.68377760		4.33384998		-0.00015821		 0.00074064		 0.00056366	
O		3.23046079		5.23362198		1.80870807		-0.00015845		-0.00074050		 0.00056355	
O		5.07386849		3.68377760		3.24157476		 0.00015845		 0.00074050		-0.00056355	
O		3.05934400		2.23104387		1.60477824		 0.00069440		-0.00040329		 0.00044542	
O		5.24498528		6.68635570		3.44550460		-0.00069440		 0.00040329		-0.00044542	
O		5.96267066		2.23104387		0.92036367		-0.00069459		-0.00040277		-0.00044562	
O		2.34165764		6.68635570		4.12991917		 0.00069459		 0.00040277		 0.00044562	
O		7.92919402		6.68974512		1.60477824		 0.00070154		-0.00039074		 0.00044825	
O		0.37513526		2.22765640		3.44550460		-0.00070154		 0.00039074		-0.00044825	
O		1.09282064		6.68974512		0.92036367		-0.00070173		-0.00039037		-0.00044841	
O		7.21150767		2.22765640		4.12991917		 0.00070173		 0.00039037		 0.00044841	
O		1.98719392		0.15551866		5.02720267		 0.00014147		 0.00044701		 0.00019722	
O		6.31713633		8.76188091		0.02308017		-0.00014147		-0.00044701		-0.00019722	
O		5.59944998		0.15551866		2.54822110		-0.00014147		 0.00044701		-0.00019730	
O		2.70487930		8.76188091		2.50206174		 0.00014147		-0.00044701		 0.00019730	
O		6.85704394		4.61421991		5.02720267		 0.00014437		 0.00044777		 0.00019847	
O		1.44728534		4.30318064		0.02308017		-0.00014437		-0.00044777		-0.00019847	
O		0.72959996		4.61421991		2.54822110		-0.00014445		 0.00044786		-0.00019854	
O		7.57472933		4.30318064		2.50206174		 0.00014445		-0.00044786		 0.00019854	
