# total energy = -9138.95380555 eV

CRYSTAL
PRIMVEC
		5.33299824		0.00000000		0.42663879
		-2.66650180		4.61851135		-0.21332207
		0.58592012		0.00000000		7.32399888
PRIMECORD
   14 1
Mg		2.04146915		0.00000000		3.48168657		 0.00058881		-0.00000000		-0.00089651
Mg		-0.61996509		1.53658017		3.26877164		-0.00018124		 0.00036457		 0.00017617
Mg		2.04653510		3.08193386		3.48209157		-0.00018124		-0.00036457		 0.00017617
Si		0.04511580		3.07900900		0.56394805		-0.00036301		 0.00024843		-0.00021178
Si		2.71161599		1.53950503		0.77726798		-0.00036301		-0.00024843		-0.00021178
O		0.17097117		3.07900900		2.13714281		 0.00050456		-0.00029156		-0.00011929
O		2.83747189		1.53950503		2.35046274		 0.00050456		 0.00029156		-0.00011929
O		3.25365189		0.00000000		7.48647739		 0.00022666		0.00000000		-0.00014763
O		-0.75409804		2.31387490		7.16585763		 0.00015774		-0.00022912		 0.00078254
O		1.91240215		2.30463806		7.37917756		 0.00015774		 0.00022912		 0.00078254
O		3.87731065		0.00000000		4.61824385		-0.00080796		0.00000000		-0.00015073
O		-1.41835770		3.05745583		4.19458985		-0.00037303		-0.00029209		 0.00000587
O		1.24814196		1.56105766		4.40790978		-0.00037303		 0.00029209		 0.00000587
O		0.17753406		0.00000000		2.21917173		 0.00050248		-0.00000000		-0.00007208
