# total energy = -44011.6088071 eV	

CRYSTAL	
PRIMVEC	
		9.81799975		0.00000000		0.00000000	
		0.00000000		18.04700533		0.72187825	
		-1.33411890		0.20413585		5.10350427	
PRIMCOORD
   82 1	
Si		2.35753443		1.57645462		1.57331581		 0.00004453		 0.00000042		 0.00038609	
Si		6.12634446		16.67468558		4.25206671		-0.00004453		-0.00000042		-0.00038609	
Si		6.12634446		1.65958068		3.65146334		-0.00013669		-0.00007752		 0.00023048	
Si		2.35753443		16.59155952		2.17392114		 0.00013669		 0.00007752		-0.00023048	
Si		7.26653430		10.59995532		1.93425591		 0.00022256		 0.00007709		 0.00041679	
Si		1.21734557		7.65118586		3.89112661		-0.00022256		-0.00007709		-0.00041679	
Si		1.21734557		10.68308040		4.01240247		-0.00031683		-0.00002984		 0.00015814	
Si		7.26653430		7.56805980		1.81298103		 0.00031683		 0.00002984		-0.00015814	
Si		1.76155730		3.25201115		4.22775047		-0.00033053		-0.00047093		 0.00000116	
Si		6.72232257		14.99912905		1.59763205		 0.00033053		 0.00047093		-0.00000116	
Si		6.72232257		3.12781247		1.12277958		 0.00014679		-0.00026352		-0.00005095	
Si		1.76155730		15.12332773		4.70260392		-0.00014679		 0.00026352		 0.00005095	
Si		6.67055717		12.27551185		4.58869058		-0.00002706		-0.00021268		 0.00002136	
Si		1.81332172		5.97562933		1.23669194		 0.00002706		 0.00021268		-0.00002136	
Si		1.81332172		12.15131317		1.48371969		-0.00015589		 0.00000900		-0.00008455	
Si		6.67055717		6.09982801		4.34166381		 0.00015589		-0.00000900		 0.00008455	
O		2.58846753		2.25868582		3.08844425		-0.00064566		 0.00033084		-0.00016022	
O		5.89541038		15.99245437		2.73693925		 0.00064566		-0.00033084		 0.00016022	
O		5.89541038		2.22259387		2.18614455		 0.00020776		 0.00009820		 0.00010013	
O		2.58846753		16.02854632		3.63923895		-0.00020776		-0.00009820		-0.00010013	
O		7.49746838		11.28218554		3.44938436		-0.00067591		 0.00028592		-0.00021018	
O		0.98641051		6.96895466		2.37599914		 0.00067591		-0.00028592		 0.00021018	
O		0.98641051		11.24609359		2.54708466		 0.00023166		 0.00005785		 0.00017101	
O		7.49746838		7.00504660		3.27829884		-0.00023166		-0.00005785		-0.00017101	
O		0.80703271		1.59636061		1.17005227		 0.00032271		 0.00027442		 0.00038690	
O		7.67684716		16.65477958		4.65533123		-0.00032271		-0.00027442		-0.00038690	
O		7.67684716		1.71186251		4.05761534		-0.00035644		 0.00003755		-0.00012156	
O		0.80703271		16.53927671		1.76776915		 0.00035644		-0.00003755		 0.00012156	
O		5.71603258		10.61986132		1.53099237		 0.00020945		 0.00026080		 0.00036191	
O		2.76784729		7.63127986		4.29439113		-0.00020945		-0.00026080		-0.00036191	
O		2.76784729		10.73536419		4.41855446		-0.00022309		 0.00002531		-0.00010037	
O		5.71603258		7.51577699		1.40682904		 0.00022309		-0.00002531		 0.00010037	
O		2.52914030		4.63760091		4.22763560		-0.00027828		 0.00000205		 0.00007224	
O		5.95473957		13.61353929		1.59774790		 0.00027828		-0.00000205		-0.00007224	
O		5.95473957		4.51785175		1.23392130		-0.00043329		 0.00007464		 0.00004147	
O		2.52914030		13.73328845		4.59146318		 0.00043329		-0.00007464		-0.00004147	
O		7.43813919		13.66110063		4.58857571		-0.00042040		-0.00021976		 0.00006123	
O		1.04573970		4.59003957		1.23680779		 0.00042040		 0.00021976		-0.00006123	
O		1.04573970		13.54135245		1.59486141		-0.00028341		-0.00017188		 0.00006474	
O		7.43813919		4.70978873		4.23052307		 0.00028341		 0.00017188		-0.00006474	
O		2.91896987		0.05962864		1.49073268		-0.00037197		-0.00010551		 0.00007196	
O		5.56491000		0.14451114		3.61276962		 0.00037197		 0.00010551		-0.00007196	
O		7.82796876		9.08312934		1.85167279		-0.00041063		-0.00012561		 0.00006903	
O		0.65591013		9.16801086		3.97370973		 0.00041063		 0.00012561		-0.00006903	
O		0.19753030		3.23744418		3.81852152		 0.00013024		 0.00025483		-0.00000337	
O		8.28634957		15.01369602		2.00686100		-0.00013024		-0.00025483		 0.00000337	
O		8.28634957		3.14598853		1.53215286		-0.00049262		-0.00030174		 0.00008648	
O		0.19753030		15.10515068		4.29323064		 0.00049262		 0.00030174		-0.00008648	
O		5.10653018		12.26094488		4.17946162		-0.00006106		 0.00021603		-0.00004725	
O		3.37734970		5.99019630		1.64592090		 0.00006106		-0.00021603		 0.00004725	
O		3.37734970		12.16948923		1.89309297		-0.00029637		-0.00032781		 0.00012809	
O		5.10653018		6.08165096		3.93229053		 0.00029637		 0.00032781		-0.00012809	
O		0.12189047		0.14600053		3.65002599		 0.00018413		 0.00020391		 0.00000198	
O		8.36198940		0.05813925		1.45347828		-0.00018413		-0.00020391		-0.00000198	
O		5.03089034		9.16950123		4.01096609		 0.00007811		 0.00019983		-0.00003289	
O		3.45298953		9.08163995		1.81441839		-0.00007811		-0.00019983		 0.00003289	
O		3.26959224		2.44396326		0.60321594		-0.00044460		 0.00023462		 0.00025410	
O		5.21428665		15.80717792		5.22216756		 0.00044460		-0.00023462		-0.00025410	
O		5.21428665		2.60760183		4.69418499		 0.00041611		 0.00020589		 0.00017889	
O		3.26959224		15.64353837		1.13119851		-0.00041611		-0.00020589		-0.00017889	
O		8.17859310		11.46746298		0.96415605		-0.00049958		 0.00017470		 0.00030939	
O		0.30528678		6.78367820		4.86122745		 0.00049958		-0.00017470		-0.00030939	
O		0.30528678		11.63110154		5.05512509		 0.00047592		 0.00013087		 0.00013627	
O		8.17859310		6.62003865		0.77025939		-0.00047592		-0.00013087		-0.00013627	
Ca		-0.66706043		5.11191731		2.75214634		-0.00016133		 0.00000041		 0.00019786	
Ca		-0.66706043		13.13922387		3.07323814		 0.00016133		-0.00000041		-0.00019786	
Ca		4.24193944		14.13541801		3.11308547		-0.00017102		 0.00004789		 0.00020502	
Ca		4.24193944		4.11572317		2.71229803		 0.00017102		-0.00004789		-0.00020502	
Mg		0.00000000		0.00000000		0.00000000		0.00000000		0.00000000		0.00000000	
Mg		4.90899987		9.02349972		0.36094011		0.00000000		0.00000000		0.00000000	
Mg		0.00000000		3.18709944		0.12748378		 0.00002630		 0.00001761		-0.00023213	
Mg		0.00000000		14.85990098		0.59439643		-0.00002630		-0.00001761		 0.00023213	
Mg		4.90899987		12.21060014		0.48842389		 0.00002791		 0.00005782		-0.00024932	
Mg		4.90899987		5.83640028		0.23345633		-0.00002791		-0.00005782		 0.00024932	
Mg		-0.66706043		1.68659687		2.61513321		-0.00027917		 0.00032601		 0.00019969	
Mg		-0.66706043		16.56454333		3.21025127		 0.00027917		-0.00032601		-0.00019969	
Mg		4.24193944		10.71009757		2.97607332		-0.00030312		 0.00029324		 0.00021068	
Mg		4.24193944		7.54104361		2.84931116		 0.00030312		-0.00029324		-0.00021068	
H		0.92650893		0.15718814		3.92969760		 0.00042796		 0.00014600		 0.00027268	
H		7.55736996		0.04695164		1.17380569		-0.00042796		-0.00014600		-0.00027268	
H		5.83550880		9.18068786		4.29063771		 0.00052966		 0.00014937		 0.00030345	
H		2.64837009		9.07045234		1.53474579		-0.00052966		-0.00014937		-0.00030345	
