# total energy = -44000.2856619 eV	

CRYSTAL	
PRIMVEC	
		9.81799975		0.00000000		0.00000000	
		0.00000000		18.04700533		2.16564457	
		-1.33411890		0.61241737		5.10350427	
PRIMCOORD
   82 1	
Si		2.35753443		1.69746932		1.69459167		-0.00037731		-0.00029992		 0.00009330	
Si		6.12634446		16.96195141		5.57455128		 0.00037731		 0.00029992		-0.00009330	
Si		6.12634446		1.94684652		3.77273920		 0.00037228		-0.00030418		 0.00027297	
Si		2.35753443		16.71257324		3.49640472		-0.00037228		 0.00030418		-0.00027297	
Si		7.26653430		10.72097002		2.77741199		-0.00042790		-0.00032800		 0.00007748	
Si		1.21734557		7.93845170		4.49173096		 0.00042790		 0.00032800		-0.00007748	
Si		1.21734557		10.97034623		4.85555854		 0.00054143		-0.00024334		 0.00032325	
Si		7.26653430		7.68907352		2.41358539		-0.00054143		 0.00024334		-0.00032325	
Si		1.76155730		3.58034960		4.47477920		 0.00003332		-0.00023064		-0.00021733	
Si		6.72232257		15.07907015		2.79436473		-0.00003332		 0.00023064		 0.00021733	
Si		6.72232257		3.20775357		1.36980733		 0.00009109		-0.00002301		 0.00000079	
Si		1.76155730		15.45166619		5.89933660		-0.00009109		 0.00002301		-0.00000079	
Si		6.67055717		12.60385031		5.55759854		 0.00006599		-0.00016644		-0.00023604	
Si		1.81332172		6.05556945		1.71154539		-0.00006599		 0.00016644		 0.00023604	
Si		1.81332172		12.23125427		2.45262666		 0.00010569		 0.00001414		 0.00001374	
Si		6.67055717		6.42816647		4.81651726		-0.00010569		-0.00001414		-0.00001374	
O		2.58846753		2.49891755		3.25952977		 0.00048632		 0.00008066		-0.00029628	
O		5.89541038		16.16050319		4.00961415		-0.00048632		-0.00008066		 0.00029628	
O		5.89541038		2.39064170		2.35723007		 0.00017237		-0.00037993		-0.00020527	
O		2.58846753		16.26878001		4.91191288		-0.00017237		 0.00037993		 0.00020527	
O		7.49746838		11.52241727		4.34235009		 0.00046530		 0.00002210		-0.00028582	
O		0.98641051		7.13700248		2.92679383		-0.00046530		-0.00002210		 0.00028582	
O		0.98641051		11.41414142		3.44005039		 0.00015267		-0.00038280		-0.00021314	
O		7.49746838		7.24527833		3.82909256		-0.00015267		 0.00038280		 0.00021314	
O		0.80703271		1.68499850		1.29421560		-0.00051891		-0.00020418		-0.00010790	
O		7.67684716		16.97442126		5.97492833		 0.00051891		 0.00020418		 0.00010790	
O		7.67684716		2.03150615		4.18177769		 0.00061002		 0.00009416		-0.00039668	
O		0.80703271		16.62791459		3.08736624		-0.00061002		-0.00009416		 0.00039668	
O		5.71603258		10.70849920		2.37703592		-0.00042213		-0.00020646		-0.00013632	
O		2.76784729		7.95092154		4.89210801		 0.00042213		 0.00020646		 0.00013632	
O		2.76784729		11.05500685		5.26459801		 0.00048305		 0.00006070		-0.00045587	
O		5.71603258		7.60441487		2.00454592		-0.00048305		-0.00006070		 0.00045587	
O		2.52914030		4.96148886		4.58568823		 0.00037216		-0.00023321		-0.00077632	
O		5.95473957		13.69793187		2.68345569		-0.00037216		 0.00023321		 0.00077632	
O		5.95473957		4.60224335		1.59197295		-0.00029787		-0.00007260		 0.00008474	
O		2.52914030		14.05717641		5.67717097		 0.00029787		 0.00007260		-0.00008474	
O		7.43813919		13.98498957		5.66850757		 0.00032698		-0.00027825		-0.00077788	
O		1.04573970		4.67443215		1.60063635		-0.00032698		 0.00027825		 0.00077788	
O		1.04573970		13.62574405		2.67479327		-0.00029769		-0.00013221		 0.00010651	
O		7.43813919		5.03367669		4.59435066		 0.00029769		 0.00013221		-0.00010651	
O		2.91896987		0.17888788		1.49073268		 0.00058633		-0.00006841		 0.00017162	
O		5.56491000		0.43353243		3.61276962		-0.00058633		 0.00006841		-0.00017162	
O		7.82796876		9.20238760		2.57355398		 0.00062084		-0.00004643		 0.00016149	
O		0.65591013		9.45703313		4.69558994		-0.00062084		 0.00004643		-0.00016149	
O		0.19753030		3.53303863		4.06569359		 0.00020301		 0.00068864		-0.00052075	
O		8.28634957		15.12638113		3.20345034		-0.00020301		-0.00068864		 0.00052075	
O		8.28634957		3.25867462		1.77932493		 0.00008572		 0.00008929		 0.00037829	
O		0.19753030		15.40074513		5.48981899		-0.00008572		-0.00008929		-0.00037829	
O		5.10653018		12.55653933		5.14851391		 0.00020926		 0.00066687		-0.00051898	
O		3.37734970		6.10288141		2.12063002		-0.00020926		-0.00066687		 0.00051898	
O		3.37734970		12.28217533		2.86214525		 0.00004771		 0.00006831		 0.00035935	
O		5.10653018		6.37724541		4.40699867		-0.00004771		-0.00006831		-0.00035935	
O		0.12189047		0.43800257		3.65002599		 0.00002524		 0.00001110		-0.00044129	
O		8.36198940		0.17441677		1.45347828		-0.00002524		-0.00001110		 0.00044129	
O		5.03089034		9.46150327		4.73284630		 0.00017633		 0.00001402		-0.00040831	
O		3.45298953		9.19791747		2.53629762		-0.00017633		-0.00001402		 0.00040831	
O		3.26959224		2.48446349		0.79711260		 0.00003425		-0.00019039		 0.00007215	
O		5.21428665		16.17495626		6.47203133		-0.00003425		 0.00019039		-0.00007215	
O		5.21428665		2.97538017		4.88808066		-0.00064275		-0.00014523		-0.00021610	
O		3.26959224		15.68404057		2.38106228		 0.00064275		 0.00014523		 0.00021610	
O		8.17859310		11.50796517		1.87993292		 0.00004411		-0.00019601		 0.00007595	
O		0.30528678		7.15145654		5.38921101		-0.00004411		 0.00019601		-0.00007595	
O		0.30528678		11.99888087		5.97090196		-0.00065302		-0.00014744		-0.00022849	
O		8.17859310		6.66053987		1.29824196		 0.00065302		 0.00014744		 0.00022849	
Ca		-0.66706043		5.31605709		3.15293280		 0.00001096		-0.00050197		-0.00031341	
Ca		-0.66706043		13.34336365		4.11621014		-0.00001096		 0.00050197		 0.00031341	
Ca		4.24193944		14.33955779		4.23575411		 0.00001340		-0.00053462		-0.00027297	
Ca		4.24193944		4.31986295		3.03338982		-0.00001340		 0.00053462		 0.00027297	
Mg		0.00000000		0.00000000		0.00000000		0.00000000		0.00000000		0.00000000	
Mg		4.90899987		9.02349972		1.08282032		0.00000000		0.00000000		0.00000000	
Mg		0.00000000		3.18709944		0.38245233		-0.00021895		-0.00048908		-0.00009189	
Mg		0.00000000		14.85990098		1.78318831		 0.00021895		 0.00048908		 0.00009189	
Mg		4.90899987		12.21060014		1.46527166		-0.00022017		-0.00042945		-0.00010065	
Mg		4.90899987		5.83640028		0.70036799		 0.00022017		 0.00042945		 0.00010065	
Mg		-0.66706043		1.89073665		2.74189537		-0.00041164		 0.00022210		 0.00054975	
Mg		-0.66706043		16.76868311		4.52724855		 0.00041164		-0.00022210		-0.00054975	
Mg		4.24193944		10.91423735		3.82471471		-0.00045566		 0.00023072		 0.00048258	
Mg		4.24193944		7.74518339		3.44442922		 0.00045566		-0.00023072		-0.00048258	
H		0.92650893		0.47156442		3.92969760		-0.00004224		 0.00085526		 0.00056021	
H		7.55736996		0.14085688		1.17380569		 0.00004224		-0.00085526		-0.00056021	
H		5.83550880		9.49506414		5.01251792		-0.00015669		 0.00082308		 0.00053542	
H		2.64837009		9.16435660		2.25662601		 0.00015669		-0.00082308		-0.00053542	
