# total energy = -44000.285662 eV	

CRYSTAL	
PRIMVEC	
		9.81799975		0.00000000		0.00000000	
		0.00000000		18.04700533		-2.16564457	
		-1.33411890		-0.61241737		5.10350427	
PRIMCOORD
   82 1	
Si		2.35753443		1.33442718		1.33076507		-0.00037526		-0.00030420		-0.00027417	
Si		6.12634446		16.10015391		1.60709856		 0.00037526		 0.00030420		 0.00027417	
Si		6.12634446		1.08504901		3.40891064		 0.00037950		-0.00030063		-0.00009382	
Si		2.35753443		16.34953110		-0.47104799		-0.00037950		 0.00030063		 0.00009382	
Si		7.26653430		10.35792690		0.24794475		-0.00053707		-0.00024490		-0.00032211	
Si		1.21734557		7.07665419		2.68991888		 0.00053707		 0.00024490		 0.00032211	
Si		1.21734557		10.10854872		2.32609130		 0.00042722		-0.00032825		-0.00007825	
Si		7.26653430		7.32603040		0.61177233		-0.00042722		 0.00032825		 0.00007825	
Si		1.76155730		2.59533325		3.73369694		-0.00009238		-0.00002305		-0.00000101	
Si		6.72232257		14.83924685		-0.79583331		 0.00009238		 0.00002305		 0.00000101	
Si		6.72232257		2.96793027		0.62872507		-0.00003317		-0.00022984		 0.00021781	
Si		1.76155730		14.46664983		2.30913856		 0.00003317		 0.00022984		-0.00021781	
Si		6.67055717		11.61883395		2.65087564		-0.00010507		 0.00001339		-0.00001347	
Si		1.81332172		5.81574615		0.28698701		 0.00010507		-0.00001339		 0.00001347	
Si		1.81332172		11.99143097		-0.45409525		-0.00006712		-0.00016629		 0.00023584	
Si		6.67055717		5.44315011		3.39195888		 0.00006712		 0.00016629		-0.00023584	
O		2.58846753		1.77822139		2.74627322		-0.00017180		-0.00037962		 0.00020589	
O		5.89541038		15.65635872		0.19159041		 0.00017180		 0.00037962		-0.00020589	
O		5.89541038		1.88649723		1.84397351		-0.00048633		 0.00008068		 0.00029589	
O		2.58846753		15.54808287		1.09389011		 0.00048633		-0.00008068		-0.00029589	
O		7.49746838		10.80172209		1.66345290		-0.00015280		-0.00038301		 0.00021239	
O		0.98641051		6.63285900		1.27440975		 0.00015280		 0.00038301		-0.00021239	
O		0.98641051		10.90999794		0.76115418		-0.00046479		 0.00002230		 0.00028540	
O		7.49746838		6.52458315		2.17671043		 0.00046479		-0.00002230		-0.00028540	
O		0.80703271		1.41908583		0.92172560		-0.00060790		 0.00009413		 0.00039720	
O		7.67684716		16.01549329		2.01613803		 0.00060790		-0.00009413		-0.00039720	
O		7.67684716		1.07257818		3.80928769		 0.00051753		-0.00020406		 0.00010752	
O		0.80703271		16.36200192		-0.87142406		-0.00051753		 0.00020406		-0.00010752	
O		5.71603258		10.44258653		-0.16109472		-0.00048673		 0.00006081		 0.00045561	
O		2.76784729		6.99199456		3.09895835		 0.00048673		-0.00006081		-0.00045561	
O		2.76784729		10.09607888		2.72646835		 0.00042307		-0.00020618		 0.00013638	
O		5.71603258		7.33850220		0.21139626		-0.00042307		 0.00020618		-0.00013638	
O		2.52914030		3.98982303		3.51153132		 0.00029811		-0.00007241		-0.00008465	
O		5.95473957		13.44475708		-0.57366671		-0.00029811		 0.00007241		 0.00008465	
O		5.95473957		4.34906855		0.51781603		-0.00037224		-0.00023363		 0.00077635	
O		2.52914030		13.08551057		2.42004759		 0.00037224		 0.00023363		-0.00077635	
O		7.43813919		13.01332373		2.42871002		 0.00029791		-0.00013142		-0.00010631	
O		1.04573970		4.42125736		0.50915263		-0.00029791		 0.00013142		 0.00010631	
O		1.04573970		13.37256925		-0.56500527		-0.00032699		-0.00027828		 0.00077803	
O		7.43813919		4.06201085		3.50286791		 0.00032699		 0.00027828		-0.00077803	
O		2.91896987		-0.17888788		1.49073268		 0.00058677		 0.00006758		 0.00017188	
O		5.56491000		-0.43353243		3.61276962		-0.00058677		-0.00006758		-0.00017188	
O		7.82796876		8.84461184		0.40791334		 0.00062023		 0.00004787		 0.00016153	
O		0.65591013		8.58996827		2.52995028		-0.00062023		-0.00004787		-0.00016153	
O		0.19753030		2.64625431		3.32417934		-0.00008480		 0.00008957		-0.00037765	
O		8.28634957		14.78832580		-0.38631473		 0.00008480		-0.00008957		 0.00037765	
O		8.28634957		2.92061929		1.03780970		-0.00020350		 0.00068875		 0.00052112	
O		0.19753030		14.51396081		1.90005393		 0.00020350		-0.00068875		-0.00052112	
O		5.10653018		11.66975501		2.24135902		-0.00004841		 0.00006849		-0.00035931	
O		3.37734970		5.76482608		0.69650461		 0.00004841		-0.00006849		 0.00035931	
O		3.37734970		11.94411999		-0.04501062		-0.00020855		 0.00066694		 0.00051957	
O		5.10653018		5.49046109		2.98287425		 0.00020855		-0.00066694		-0.00051957	
O		0.12189047		-0.43800257		3.65002599		 0.00002211		-0.00001047		-0.00044168	
O		8.36198940		-0.17441677		1.45347828		-0.00002211		 0.00001047		 0.00044168	
O		5.03089034		8.58549715		2.56720567		 0.00017931		-0.00001484		-0.00040794	
O		3.45298953		8.84908295		0.37065796		-0.00017931		 0.00001484		 0.00040794	
O		3.26959224		2.36295985		0.21542164		 0.00064292		-0.00014523		 0.00021608	
O		5.21428665		15.07161927		2.72244100		-0.00064292		 0.00014523		-0.00021608	
O		5.21428665		1.87204416		4.30639069		-0.00003516		-0.00018996		-0.00007163	
O		3.26959224		15.56253693		-1.36852706		 0.00003516		 0.00018996		 0.00007163	
O		8.17859310		11.38645957		-0.86739770		 0.00065268		-0.00014737		 0.00022834	
O		0.30528678		6.04811955		3.80526132		-0.00065268		 0.00014737		-0.00022834	
O		0.30528678		10.89554388		3.22357135		-0.00004437		-0.00019559		-0.00007528	
O		8.17859310		6.53903623		-0.28570674		 0.00004437		 0.00019559		 0.00007528	
Ca		-0.66706043		4.70363677		1.95056950		-0.00001115		-0.00050182		 0.00031353	
Ca		-0.66706043		12.73094235		0.98729315		 0.00001115		 0.00050182		-0.00031353	
Ca		4.24193944		13.72713649		0.86775016		-0.00001369		-0.00053477		 0.00027321	
Ca		4.24193944		3.70744263		2.07011248		 0.00001369		 0.00053477		-0.00027321	
Mg		0.00000000		0.00000000		0.00000000		0.00000000		0.00000000		0.00000000	
Mg		4.90899987		9.02349972		-1.08282032		0.00000000		0.00000000		0.00000000	
Mg		0.00000000		3.18709944		-0.38245233		 0.00021909		-0.00048872		 0.00009194	
Mg		0.00000000		14.85990098		-1.78318831		-0.00021909		 0.00048872		-0.00009194	
Mg		4.90899987		12.21060014		-1.46527166		 0.00022011		-0.00042919		 0.00010045	
Mg		4.90899987		5.83640028		-0.70036799		-0.00022011		 0.00042919		-0.00010045	
Mg		-0.66706043		1.27831731		2.36160890		 0.00041182		 0.00022207		-0.00054958	
Mg		-0.66706043		16.15626377		0.57625473		-0.00041182		-0.00022207		 0.00054958	
Mg		4.24193944		10.30181703		1.27878858		 0.00045586		 0.00023095		-0.00048228	
Mg		4.24193944		7.13276405		1.65907505		-0.00045586		-0.00023095		 0.00048228	
H		0.92650893		-0.47156442		3.92969760		-0.00003935		-0.00085595		 0.00056043	
H		7.55736996		-0.14085688		1.17380569		 0.00003935		 0.00085595		-0.00056043	
H		5.83550880		8.55193726		2.84687826		-0.00015965		-0.00082235		 0.00053482	
H		2.64837009		8.88264382		0.09098635		 0.00015965		 0.00082235		-0.00053482	
