# total energy = -44007.3161681 eV	

CRYSTAL	
PRIMVEC	
		9.81799975		0.00000000		0.00000000	
		0.00000000		18.04700533		-1.44375650	
		-1.33411890		-0.40828152		5.10350427	
PRIMCOORD
   82 1	
Si		2.35753443		1.39493355		1.39140300		 0.00015820		 0.00013937		 0.00010830	
Si		6.12634446		16.24378633		2.26834084		-0.00015820		-0.00013937		-0.00010830	
Si		6.12634446		1.22868241		3.46954857		 0.00024853		-0.00002780		 0.00003409	
Si		2.35753443		16.41003845		0.19019429		-0.00024853		 0.00002780		-0.00003409	
Si		7.26653430		10.41843327		0.66952278		 0.00010549		 0.00013585		 0.00009348	
Si		1.21734557		7.22028661		2.99022106		-0.00010549		-0.00013585		-0.00009348	
Si		1.21734557		10.25218213		2.74766934		 0.00031045		-0.00005508		 0.00004652	
Si		7.26653430		7.38653775		0.91207352		-0.00031045		 0.00005508		-0.00004652	
Si		1.76155730		2.75950297		3.85721032		-0.00021221		-0.00015782		 0.00002512	
Si		6.72232257		14.87921691		-0.19746747		 0.00021221		 0.00015782		-0.00002512	
Si		6.72232257		3.00790131		0.75223943		 0.00033728		-0.00007644		-0.00009531	
Si		1.76155730		14.63081955		2.90750539		-0.00033728		 0.00007644		 0.00009531	
Si		6.67055717		11.78300367		3.13533011		-0.00032620		-0.00023137		 0.00002134	
Si		1.81332172		5.85571719		0.52441275		 0.00032620		 0.00023137		-0.00002134	
Si		1.81332172		12.03140103		0.03035922		 0.00044276		-0.00014412		-0.00007977	
Si		6.67055717		5.60731885		3.62938462		-0.00044276		 0.00014412		 0.00007977	
O		2.58846753		1.89833774		2.83181549		-0.00001180		 0.00007670		-0.00010919	
O		5.89541038		15.74038214		0.82792836		 0.00001180		-0.00007670		 0.00010919	
O		5.89541038		1.97052066		1.92951578		 0.00043190		 0.00029344		 0.00012618	
O		2.58846753		15.66819824		1.73022708		-0.00043190		-0.00029344		-0.00012618	
O		7.49746838		10.92183746		2.10993625		-0.00001467		 0.00009472		-0.00007889	
O		0.98641051		6.71688242		1.54980759		 0.00001467		-0.00009472		 0.00007889	
O		0.98641051		10.99402136		1.20763557		 0.00041800		 0.00031381		 0.00012316	
O		7.49746838		6.64469852		2.45210729		-0.00041800		-0.00031381		-0.00012316	
O		0.80703271		1.46340428		0.98380677		 0.00013714		 0.00056093		 0.00007316	
O		7.67684716		16.17531560		2.67593609		-0.00013714		-0.00056093		-0.00007316	
O		7.67684716		1.23239853		3.87136984		 0.00004927		 0.00013868		 0.00002261	
O		0.80703271		16.40632037		-0.21162600		-0.00004927		-0.00013868		-0.00002261	
O		5.71603258		10.48690498		0.26192656		 0.00019361		 0.00055045		 0.00007877	
O		2.76784729		7.15181588		3.39781630		-0.00019361		-0.00055045		-0.00007877	
O		2.76784729		10.25590021		3.14948865		 0.00001326		 0.00015568		 0.00002605	
O		5.71603258		7.38282065		0.51025421		-0.00001326		-0.00015568		-0.00002605	
O		2.52914030		4.15176701		3.69055665		 0.00020553		-0.00015671		 0.00003717	
O		5.95473957		13.48695287		-0.03081281		-0.00020553		 0.00015671		-0.00003717	
O		5.95473957		4.39126533		0.69684235		 0.00036283		-0.00010586		-0.00072610	
O		2.52914030		13.24745455		2.96290149		-0.00036283		 0.00010586		 0.00072610	
O		7.43813919		13.17526771		2.96867644		 0.00023180		-0.00007259		 0.00006463	
O		1.04573970		4.46345316		0.69106740		-0.00023180		 0.00007259		-0.00006463	
O		1.04573970		13.41476603		-0.02503786		 0.00032598		-0.00001415		-0.00073693	
O		7.43813919		4.22395581		3.68478170		-0.00032598		 0.00001415		 0.00073693	
O		2.91896987		-0.11925924		1.49073268		-0.00000910		-0.00006277		-0.00022979	
O		5.56491000		-0.28902228		3.61276962		 0.00000910		 0.00006277		 0.00022979	
O		7.82796876		8.90424146		0.76885345		 0.00000628		-0.00007239		-0.00020752	
O		0.65591013		8.73447842		2.89089039		-0.00000628		 0.00007239		 0.00020752	
O		0.19753030		2.79405153		3.44776537		 0.00007460		-0.00042182		-0.00052574	
O		8.28634957		14.84466737		0.21197945		-0.00007460		 0.00042182		 0.00052574	
O		8.28634957		2.97696087		1.16139475		 0.00047393		-0.00032007		-0.00016785	
O		0.19753030		14.66175902		2.49834811		-0.00047393		 0.00032007		 0.00016785	
O		5.10653018		11.81755223		2.72588516		 0.00012966		-0.00041356		-0.00052105	
O		3.37734970		5.82116765		0.93385868		-0.00012966		 0.00041356		 0.00052105	
O		3.37734970		12.00046157		0.43951454		 0.00040425		-0.00031793		-0.00018402	
O		5.10653018		5.63825930		3.22022832		-0.00040425		 0.00031793		 0.00018402	
O		0.12189047		-0.29200204		3.65002599		 0.00019934		-0.00033083		-0.00003629	
O		8.36198940		-0.11627752		1.45347828		-0.00019934		 0.00033083		 0.00003629	
O		5.03089034		8.73149768		2.92814577		 0.00013952		-0.00033486		-0.00003826	
O		3.45298953		8.90722220		0.73159807		-0.00013952		 0.00033486		 0.00003826	
O		3.26959224		2.38321046		0.31237144		-0.00016483		 0.00025517		 0.00006275	
O		5.21428665		15.25550942		3.34737338		 0.00016483		-0.00025517		-0.00006275	
O		5.21428665		2.05593333		4.40333852		 0.00029714		 0.00034209		-0.00009331	
O		3.26959224		15.58278655		-0.74359567		-0.00029714		-0.00034209		 0.00009331	
O		8.17859310		11.40671116		-0.40950877		-0.00014443		 0.00025518		 0.00004158	
O		0.30528678		6.23200872		4.06925261		 0.00014443		-0.00025518		-0.00004158	
O		0.30528678		11.07943403		3.68145929		 0.00029270		 0.00035223		-0.00006586	
O		8.17859310		6.55928683		-0.02171545		-0.00029270		-0.00035223		 0.00006586	
Ca		-0.66706043		4.80570666		2.15096371		 0.00037947		-0.00012650		-0.00052863	
Ca		-0.66706043		12.83301224		1.50878013		-0.00037947		 0.00012650		 0.00052863	
Ca		4.24193944		13.82920736		1.42908350		 0.00037564		-0.00015322		-0.00056394	
Ca		4.24193944		3.80951252		2.23066034		-0.00037564		 0.00015322		 0.00056394	
Mg		0.00000000		0.00000000		0.00000000		0.00000000		0.00000000		0.00000000	
Mg		4.90899987		9.02349972		-0.72188021		0.00000000		0.00000000		0.00000000	
Mg		0.00000000		3.18709944		-0.25496756		-0.00032877		-0.00029105		 0.00035010	
Mg		0.00000000		14.85990098		-1.18879188		 0.00032877		 0.00029105		-0.00035010	
Mg		4.90899987		12.21060014		-0.97684778		-0.00035131		-0.00028606		 0.00031061	
Mg		4.90899987		5.83640028		-0.46691167		 0.00035131		 0.00028606		-0.00031061	
Mg		-0.66706043		1.38038720		2.42498998		 0.00045745		 0.00008315		-0.00040584	
Mg		-0.66706043		16.25833366		1.23475387		-0.00045745		-0.00008315		 0.00040584	
Mg		4.24193944		10.40388692		1.70310976		 0.00045541		 0.00006329		-0.00041208	
Mg		4.24193944		7.23483394		1.95663408		-0.00045541		-0.00006329		 0.00041208	
H		0.92650893		-0.31437628		3.92969760		 0.00025011		-0.00036157		 0.00023835	
H		7.55736996		-0.09390426		1.17380569		-0.00025011		 0.00036157		-0.00023835	
H		5.83550880		8.70912442		3.20781837		 0.00031931		-0.00035970		 0.00025708	
H		2.64837009		8.92959546		0.45192646		-0.00031931		 0.00035970		-0.00025708	
