# total energy = -43992.1698015 eV	

CRYSTAL	
PRIMVEC	
		9.81799975		0.00000000		0.00000000	
		0.00000000		18.04700533		2.88752282	
		-1.33411890		0.81656304		5.10350427	
PRIMCOORD
   82 1	
Si		2.35753443		1.75797667		1.75522960		 0.00030797		 0.00022285		 0.00009747	
Si		6.12634446		17.10558482		6.23579356		-0.00030797		-0.00022285		-0.00009747	
Si		6.12634446		2.09047992		3.83337713		 0.00014196		-0.00044606		-0.00040638	
Si		2.35753443		16.77308157		4.15764701		-0.00014196		 0.00044606		 0.00040638	
Si		7.26653430		10.78147639		3.19899002		 0.00028097		 0.00020255		 0.00009359	
Si		1.21734557		8.08208510		4.79203412		-0.00028097		-0.00020255		-0.00009359	
Si		1.21734557		11.11397964		5.27713658		 0.00011284		-0.00045587		-0.00039512	
Si		7.26653430		7.74958087		2.71388658		-0.00011284		 0.00045587		 0.00039512	
Si		1.76155730		3.74452031		4.59829160		-0.00022033		 0.00017929		-0.00037826	
Si		6.72232257		15.11904021		3.39273057		 0.00022033		-0.00017929		 0.00037826	
Si		6.72232257		3.24772461		1.49332071		 0.00005177		 0.00037146		 0.00023574	
Si		1.76155730		15.61583689		6.49770245		-0.00005177		-0.00037146		-0.00023574	
Si		6.67055717		12.76802101		6.04205203		-0.00027604		 0.00012213		-0.00033499	
Si		1.81332172		6.09554049		1.94897113		 0.00027604		-0.00012213		 0.00033499	
Si		1.81332172		12.27122433		2.93708113		 0.00012482		 0.00031065		 0.00026353	
Si		6.67055717		6.59233619		5.05394300		-0.00012482		-0.00031065		-0.00026353	
O		2.58846753		2.61903390		3.34507302		 0.00030440		 0.00022263		 0.00020210	
O		5.89541038		16.24452759		4.64595112		-0.00030440		-0.00022263		-0.00020210	
O		5.89541038		2.47466611		2.44277332		-0.00061188		 0.00004609		-0.00007564	
O		2.58846753		16.38889539		5.54825082		 0.00061188		-0.00004609		 0.00007564	
O		7.49746838		11.64253362		4.78883247		 0.00035679		 0.00024864		 0.00023202	
O		0.98641051		7.22102689		3.20219069		-0.00035679		-0.00024864		-0.00023202	
O		0.98641051		11.49816583		3.88653276		-0.00062453		 0.00003818		-0.00008184	
O		7.49746838		7.36539469		4.10449138		 0.00062453		-0.00003818		 0.00008184	
O		0.80703271		1.72931695		1.35629678		 0.00027172		-0.00001262		 0.00040003	
O		7.67684716		17.13424356		6.63472540		-0.00027172		 0.00001262		-0.00040003	
O		7.67684716		2.19132649		4.24385985		 0.00015777		-0.00038163		 0.00039424	
O		0.80703271		16.67223402		3.74716429		-0.00015777		 0.00038163		-0.00039424	
O		5.71603258		10.75281765		2.80005720		 0.00033268		-0.00006862		 0.00041285	
O		2.76784729		8.11074385		5.19096595		-0.00033268		 0.00006862		-0.00041285	
O		2.76784729		11.21482817		5.68762027		 0.00016779		-0.00041428		 0.00035690	
O		5.71603258		7.64873332		2.30340387		-0.00016779		 0.00041428		-0.00035690	
O		2.52914030		5.12343383		4.76471357		 0.00009266		 0.00003195		-0.00005332	
O		5.95473957		13.74012669		3.22630861		-0.00009266		-0.00003195		 0.00005332	
O		5.95473957		4.64443914		1.77099927		-0.00000771		 0.00045019		 0.00004679	
O		2.52914030		14.21912137		6.22002389		 0.00000771		-0.00045019		-0.00004679	
O		7.43813919		14.14693453		6.20847399		 0.00010873		 0.00007632		-0.00004293	
O		1.04573970		4.71662697		1.78254916		-0.00010873		-0.00007632		 0.00004293	
O		1.04573970		13.66793985		3.21475871		-0.00002572		 0.00050969		 0.00008527	
O		7.43813919		5.19562165		4.77626346		 0.00002572		-0.00050969		-0.00008527	
O		2.91896987		0.23851652		1.49073268		 0.00042197		 0.00058357		 0.00001353	
O		5.56491000		0.57804259		3.61276962		-0.00042197		-0.00058357		-0.00001353	
O		7.82796876		9.26201821		2.93449409		 0.00039214		 0.00057794		-0.00005904	
O		0.65591013		9.60154329		5.05653005		-0.00039214		-0.00057794		 0.00005904	
O		0.19753030		3.68083683		4.18927962		 0.00014401		 0.00046076		-0.00043680	
O		8.28634957		15.18272368		3.80174354		-0.00014401		-0.00046076		 0.00043680	
O		8.28634957		3.31501718		1.90291097		 0.00021197		 0.00031126		-0.00011846	
O		0.19753030		15.54854333		6.08811317		-0.00021197		-0.00031126		 0.00011846	
O		5.10653018		12.70433753		5.63304005		 0.00012249		 0.00044665		-0.00044817	
O		3.37734970		6.15922494		2.35798409		-0.00012249		-0.00044665		 0.00044817	
O		3.37734970		12.33851788		3.34667139		 0.00024264		 0.00027821		-0.00017017	
O		5.10653018		6.52504362		4.64435275		-0.00024264		-0.00027821		 0.00017017	
O		0.12189047		0.58400408		3.65002599		 0.00021975		-0.00030376		-0.00024757	
O		8.36198940		0.23255601		1.45347828		-0.00021975		 0.00030376		 0.00024757	
O		5.03089034		9.60750478		5.09378543		 0.00044731		-0.00021925		-0.00026047	
O		3.45298953		9.25605672		2.89723773		-0.00044731		 0.00021925		 0.00026047	
O		3.26959224		2.50471508		0.89406240		 0.00014675		 0.00011817		 0.00006063	
O		5.21428665		16.35884642		7.09696174		-0.00014675		-0.00011817		-0.00006063	
O		5.21428665		3.15927032		4.98502948		 0.00037217		-0.00002573		-0.00005226	
O		3.26959224		15.70429117		3.00599367		-0.00037217		 0.00002573		 0.00005226	
O		8.17859310		11.52821480		2.33782185		 0.00016246		 0.00017435		 0.00004736	
O		0.30528678		7.33534572		5.65320229		-0.00016246		-0.00017435		-0.00004736	
O		0.30528678		12.18277004		6.42878991		 0.00037122		-0.00004977		 0.00000256	
O		8.17859310		6.68079047		1.56223423		-0.00037122		 0.00004977		-0.00000256	
Ca		-0.66706043		5.41812796		3.35332701		 0.00049700		-0.00031925		-0.00015829	
Ca		-0.66706043		13.44543354		4.63769614		-0.00049700		 0.00031925		 0.00015829	
Ca		4.24193944		14.44162768		4.79708646		 0.00050458		-0.00029625		-0.00014145	
Ca		4.24193944		4.42193283		3.19393572		-0.00050458		 0.00029625		 0.00014145	
Mg		0.00000000		0.00000000		0.00000000		0.00000000		0.00000000		0.00000000	
Mg		4.90899987		9.02349972		1.44376043		0.00000000		0.00000000		0.00000000	
Mg		0.00000000		3.18709944		0.50993611		 0.00032455		-0.00043800		 0.00023661	
Mg		0.00000000		14.85990098		2.37758376		-0.00032455		 0.00043800		-0.00023661	
Mg		4.90899987		12.21060014		1.95369555		 0.00022673		-0.00048108		 0.00025806	
Mg		4.90899987		5.83640028		0.93382432		-0.00022673		 0.00048108		-0.00025806	
Mg		-0.66706043		1.99280654		2.80527547		 0.00042788		 0.00014357		-0.00030206	
Mg		-0.66706043		16.87075398		5.18574769		-0.00042788		-0.00014357		 0.00030206	
Mg		4.24193944		11.01630724		4.24903590		 0.00037217		 0.00022603		-0.00038347	
Mg		4.24193944		7.84725426		3.74198824		-0.00037217		-0.00022603		 0.00038347	
H		0.92650893		0.62875158		3.92969760		 0.00016131		-0.00008322		 0.00052375	
H		7.55736996		0.18780852		1.17380569		-0.00016131		 0.00008322		-0.00052375	
H		5.83550880		9.65225130		5.37345803		-0.00005925		-0.00016502		 0.00052684	
H		2.64837009		9.21130922		2.61756611		 0.00005925		 0.00016502		-0.00052684	
