# total energy = -10069.2402746 eV	

CRYSTAL	
PRIMVEC	
		4.94932768		0.00000000		0.00000000	
		0.00000000		4.82861357		0.00000000	
		0.00000000		0.00000000		4.82861357	
PRIMCOORD
   12 1	
Mg		0.00000000		0.00000000		0.00000000		0.00000000		0.00000000		0.00000000	
Mg		2.47466384		0.00000000		2.41430580		0.00000000		0.00000000		0.00000000	
Mg		0.00000000		2.41430580		2.41430580		0.00000000		0.00000000		0.00000000	
Mg		2.47466384		2.41430580		0.00000000		-0.00000000		0.00000000		0.00000000	
O		0.44259115		2.84610197		4.39681591		 0.00030109		 0.00019788		-0.00021450	
O		4.50673652		1.98250962		0.43179617		-0.00030109		-0.00019788		 0.00021450	
O		2.03207268		1.98250962		1.98250962		-0.00030109		-0.00019788		-0.00021450	
O		2.91725499		2.84610197		2.84610197		 0.00030109		 0.00019788		 0.00021450	
O		4.50673652		0.43179617		2.84610197		-0.00030109		 0.00019788		 0.00021450	
O		0.44259115		4.39681591		1.98250962		 0.00030109		-0.00019788		-0.00021450	
O		2.91725499		4.39681591		0.43179617		 0.00030109		-0.00019788		 0.00021450	
O		2.03207268		0.43179617		4.39681591		-0.00030109		 0.00019788		-0.00021450	
