# total energy = -18385.1267182 eV	

CRYSTAL	
PRIMVEC	
		4.69462516		0.00000000		0.00000000	
		0.00000000		11.08000080		0.00000000	
		0.00000000		0.00000000		6.37000074	
PRIMCOORD
   28 1	
Mg		0.00000000		0.00000000		0.00000000		0.00000000		-0.00000000		0.00000000	
Mg		2.34731305		5.54000040		0.00000000		0.00000000		0.00000000		-0.00000000	
Mg		0.00000000		0.00000000		3.18499990		0.00000000		0.00000000		0.00000000	
Mg		2.34731305		5.54000040		3.18499990		0.00000000		0.00000000		-0.00000000	
Ca		4.61481607		2.84756010		1.59249995		-0.00026759		-0.00038621		-0.00000000	
Ca		0.07980910		8.23244023		4.77750032		 0.00026759		 0.00038621		-0.00000000	
Ca		2.26750395		2.69244030		4.77750032		-0.00026759		 0.00038621		-0.00000000	
Ca		2.42712121		8.38756050		1.59249995		 0.00026759		-0.00038621		-0.00000000	
Si		1.89193394		0.95287981		1.59249995		 0.00043217		-0.00001487		0.00000000	
Si		2.80269122		10.12712053		4.77750032		-0.00043217		 0.00001487		0.00000000	
Si		4.23924605		4.58712013		4.77750032		 0.00043217		 0.00001487		0.00000000	
Si		0.45537911		6.49288021		1.59249995		-0.00043217		-0.00001487		0.00000000	
O		3.58669409		0.74236014		1.59249995		 0.00003258		 0.00023897		0.00000000	
O		1.10793201		10.33764019		4.77750032		-0.00003258		-0.00023897		0.00000000	
O		1.23938104		4.79764026		4.77750032		 0.00003258		-0.00023897		0.00000000	
O		3.45524412		6.28236007		1.59249995		-0.00003258		 0.00023897		0.00000000	
O		3.45524412		5.14112017		1.59249995		-0.00002478		 0.00015798		0.00000000	
O		1.23938104		5.93888017		4.77750032		 0.00002478		-0.00015798		0.00000000	
O		1.10793201		0.39888024		4.77750032		-0.00002478		-0.00015798		0.00000000	
O		3.58669409		10.68112057		1.59249995		 0.00002478		 0.00015798		0.00000000	
O		1.17365582		1.69523994		0.19109988		 0.00004712		-0.00006429		 0.00004578	
O		3.52096934		9.38476039		6.17890039		-0.00004712		 0.00006429		-0.00004578	
O		3.52096934		3.84475999		6.17890039		 0.00004712		 0.00006429		-0.00004578	
O		1.17365582		7.23524035		0.19109988		-0.00004712		-0.00006429		 0.00004578	
O		3.52096934		9.38476039		3.37610025		-0.00004712		 0.00006429		 0.00004578	
O		1.17365582		1.69523994		2.99390002		 0.00004712		-0.00006429		-0.00004578	
O		1.17365582		7.23524035		2.99390002		-0.00004712		-0.00006429		-0.00004578	
O		3.52096934		3.84475999		3.37610025		 0.00004712		 0.00006429		 0.00004578	
