# total energy = -7658.44429857 eV	

CRYSTAL	
PRIMVEC	
		5.67921702		0.00000000		0.00000000	
		-2.83960851		4.79838750		0.00000000	
		0.00000000		0.00000000		4.84349752	
PRIMCOORD
   15 1	
Mg		0.00000000		0.00000000		0.00000000		0.00000000		0.00000000		0.00000000	
Mg		0.00000000		3.19892519		0.05279400		-0.00059713		 0.00001942		 0.00021159	
Mg		2.83960908		1.59946174		4.79070579		 0.00059713		-0.00001942		-0.00021159	
O		0.93593497		1.60554021		1.06556991		-0.00010553		-0.00008302		-0.00075486	
O		1.90367298		3.19284729		3.77792988		 0.00010553		 0.00008302		 0.00075486	
O		0.94644209		4.78639129		1.06556991		-0.00001976		 0.00003937		-0.00016164	
O		1.89316700		0.01199621		3.77792988		 0.00001976		-0.00003937		 0.00016164	
O		-1.88237705		3.20484180		1.06556991		 0.00002419		-0.00001527		-0.00050335	
O		4.72198500		1.59354400		3.77792988		-0.00002419		 0.00001527		 0.00050335	
H		0.80559693		1.67607722		2.04395702		 0.00036600		-0.00006326		 0.00092281	
H		2.03401215		3.12231028		2.79954277		-0.00036600		 0.00006326		-0.00092281	
H		0.94899716		4.64099993		2.04395702		-0.00020699		 0.00036289		 0.00026068	
H		1.89061192		0.15738701		2.79954277		 0.00020699		-0.00036289		-0.00026068	
H		-1.75459410		3.27969729		2.04395702		-0.00054901		-0.00024694		 0.00051082	
H		4.59420318		1.51868908		2.79954277		 0.00054901		 0.00024694		-0.00051082	
