
     Program PWSCF v.6.6 starts on  4Feb2024 at 13:34:19 

     This program is part of the open-source Quantum ESPRESSO suite
     for quantum simulation of materials; please cite
         "P. Giannozzi et al., J. Phys.:Condens. Matter 21 395502 (2009);
         "P. Giannozzi et al., J. Phys.:Condens. Matter 29 465901 (2017);
          URL http://www.quantum-espresso.org", 
     in publications or presentations arising from this work. More details at
     http://www.quantum-espresso.org/quote

     Parallel version (MPI & OpenMP), running on      16 processor cores
     Number of MPI processes:                16
     Threads/MPI process:                     1

     MPI processes distributed on     2 nodes
     R & G space division:  proc/nbgrp/npool/nimage =      16
     Fft bands division:     nmany     =       1
     Waiting for input...
     Reading input from standard input

     Current dimensions of program PWSCF are:
     Max number of different atomic species (ntypx) = 10
     Max number of k-points (npk) =  40000
     Max angular momentum in pseudopotentials (lmaxx) =  3

     IMPORTANT: XC functional enforced from input :
     Exchange-correlation= PBE
                           (   1   4   3   4   0   0   0)
     Any further DFT definition will be discarded
     Please, verify this is what you really want


     --------------------------------------------
     Parameters for DFT-D3 Dispersion Correction:
     --------------------------------------------
       Reference C6 values for interpolation: 

         atom   Coordination number   C6
         O          0.000            31.01
         O          0.993            25.63
         O          1.989            20.74
         Mg         0.000          1366.75
         Mg         0.963           902.54
         Mg         1.950           351.12

       Values used:

         atom   Coordination number  R0_AB[au]  C6      C8
         Mg        16.303            3.292    351.12  31436.69
         Mg        16.303            3.292    351.12  31436.69
         Mg        16.303            3.292    351.12  31436.69
         Mg        16.303            3.292    351.12  31436.69
         O          5.819            2.345     20.74    418.58
         O          5.819            2.345     20.74    418.58
         O          5.819            2.345     20.74    418.58
         O          5.819            2.345     20.74    418.58

         Molecular C6 ( Ry / a.u.^6 ) =      8251.69


     Subspace diagonalization in iterative solution of the eigenvalue problem:
     a serial algorithm will be used

     Found symmetry operation: I + ( -0.0000 -0.5000 -0.5000)
     This is a supercell, fractional translations are disabled
     Message from routine setup:
     using ibrav=0 with symmetry is DISCOURAGED, use correct ibrav instead
 
     Parallelization info
     --------------------
     sticks:   dense  smooth     PW     G-vecs:    dense   smooth      PW
     Min         125     125     35                 4233     4233     623
     Max         126     126     36                 4236     4236     626
     Sum        2011    2011    565                67753    67753    9983
 


     bravais-lattice index     =            0
     lattice parameter (alat)  =       7.9831  a.u.
     unit-cell volume          =     500.6842 (a.u.)^3
     number of atoms/cell      =            8
     number of atomic types    =            2
     number of electrons       =        64.00
     number of Kohn-Sham states=           38
     kinetic-energy cutoff     =     100.0000  Ry
     charge density cutoff     =     400.0000  Ry
     convergence threshold     =      1.0E-06
     mixing beta               =       0.5000
     number of iterations used =            8  plain     mixing
     Exchange-correlation= PBE
                           (   1   4   3   4   0   0   0)
     nstep                     =          100


     celldm(1)=   7.983061  celldm(2)=   0.000000  celldm(3)=   0.000000
     celldm(4)=   0.000000  celldm(5)=   0.000000  celldm(6)=   0.000000

     crystal axes: (cart. coord. in units of alat)
               a(1) = (   0.996815  -0.079745   0.000000 )  
               a(2) = (  -0.079745   0.996815   0.000000 )  
               a(3) = (   0.000000   0.000000   0.996815 )  

     reciprocal axes: (cart. coord. in units 2 pi/alat)
               b(1) = (  1.009657  0.080773  0.000000 )  
               b(2) = (  0.080773  1.009657  0.000000 )  
               b(3) = (  0.000000  0.000000  1.003195 )  


     PseudoPot. # 1 for Mg read from file:
     ./Mg.upf
     MD5 check sum: 4c04d8c6e0476e83eaecaf72fa8acc4d
     Pseudo is Norm-conserving, Zval = 10.0
     Generated using ONCVPSP code by D. R. Hamann
     Using radial grid of 1510 points,  4 beta functions with: 
                l(1) =   0
                l(2) =   0
                l(3) =   1
                l(4) =   1

     PseudoPot. # 2 for O  read from file:
     ./O.upf
     MD5 check sum: 3e3f909f7470e8921608ab6b1f57bbae
     Pseudo is Norm-conserving + core correction, Zval =  6.0
     Generated using ONCVPSP code by D. R. Hamann
     Using radial grid of  936 points,  5 beta functions with: 
                l(1) =   0
                l(2) =   0
                l(3) =   1
                l(4) =   1
                l(5) =   2

     atomic species   valence    mass     pseudopotential
        Mg            10.00    24.30500     Mg( 1.00)
        O              6.00    15.99900     O ( 1.00)

      8 Sym. Ops., with inversion, found



   Cartesian axes

     site n.     atom                  positions (alat units)
         1           Mg  tau(   1) = (   0.0000000   0.0000000   0.0000000  )
         2           Mg  tau(   2) = (  -0.0398726   0.4984076   0.4984076  )
         3           Mg  tau(   3) = (   0.4984076  -0.0398726   0.4984076  )
         4           Mg  tau(   4) = (   0.4585350   0.4585350   0.0000000  )
         5           O   tau(   5) = (   0.4585350   0.4585350   0.4984076  )
         6           O   tau(   6) = (   0.4984076  -0.0398726   0.0000000  )
         7           O   tau(   7) = (  -0.0398726   0.4984076   0.0000000  )
         8           O   tau(   8) = (   0.0000000   0.0000000   0.4984076  )

     number of k points=    27  Gaussian smearing, width (Ry)=  0.0050
                       cart. coord. in units 2pi/alat
        k(    1) = (   0.0000000   0.0000000   0.0000000), wk =   0.0160000
        k(    2) = (   0.0000000   0.0000000   0.2006390), wk =   0.0320000
        k(    3) = (   0.0000000   0.0000000   0.4012780), wk =   0.0320000
        k(    4) = (   0.0161545   0.2019313   0.0000000), wk =   0.0640000
        k(    5) = (   0.0161545   0.2019313   0.2006390), wk =   0.1280000
        k(    6) = (   0.0161545   0.2019313   0.4012780), wk =   0.1280000
        k(    7) = (   0.0323090   0.4038627   0.0000000), wk =   0.0640000
        k(    8) = (   0.0323090   0.4038627   0.2006390), wk =   0.1280000
        k(    9) = (   0.0323090   0.4038627   0.4012780), wk =   0.1280000
        k(   10) = (   0.2180858   0.2180858   0.0000000), wk =   0.0320000
        k(   11) = (   0.2180858   0.2180858   0.2006390), wk =   0.0640000
        k(   12) = (   0.2180858   0.2180858   0.4012780), wk =   0.0640000
        k(   13) = (   0.2342404   0.4200172   0.0000000), wk =   0.0640000
        k(   14) = (   0.2342404   0.4200172   0.2006390), wk =   0.1280000
        k(   15) = (   0.2342404   0.4200172   0.4012780), wk =   0.1280000
        k(   16) = (   0.1696223  -0.3877082   0.0000000), wk =   0.0640000
        k(   17) = (   0.1696223  -0.3877082   0.2006390), wk =   0.1280000
        k(   18) = (   0.1696223  -0.3877082   0.4012780), wk =   0.1280000
        k(   19) = (   0.1857768  -0.1857768   0.0000000), wk =   0.0320000
        k(   20) = (   0.1857768  -0.1857768   0.2006390), wk =   0.0640000
        k(   21) = (   0.1857768  -0.1857768   0.4012780), wk =   0.0640000
        k(   22) = (   0.4361717   0.4361717   0.0000000), wk =   0.0320000
        k(   23) = (   0.4361717   0.4361717   0.2006390), wk =   0.0640000
        k(   24) = (   0.4361717   0.4361717   0.4012780), wk =   0.0640000
        k(   25) = (   0.3715537  -0.3715537   0.0000000), wk =   0.0320000
        k(   26) = (   0.3715537  -0.3715537   0.2006390), wk =   0.0640000
        k(   27) = (   0.3715537  -0.3715537   0.4012780), wk =   0.0640000

     Dense  grid:    67753 G-vectors     FFT dimensions: (  54,  54,  54)

     Estimated max dynamical RAM per process >      15.77 MB

     Estimated total dynamical RAM >     252.34 MB

     Initial potential from superposition of free atoms

     starting charge   63.99678, renormalised to   64.00000
     Starting wfcs are   36 randomized atomic wfcs +    2 random wfcs

     total cpu time spent up to now is        1.2 secs

     Self-consistent Calculation

     iteration #  1     ecut=   100.00 Ry     beta= 0.50
     Davidson diagonalization with overlap
     ethr =  1.00E-02,  avg # of iterations =  4.0

     total cpu time spent up to now is        7.7 secs

     total energy              =    -607.96105219 Ry
     estimated scf accuracy    <       1.59506814 Ry

     iteration #  2     ecut=   100.00 Ry     beta= 0.50
     Davidson diagonalization with overlap
     ethr =  2.49E-03,  avg # of iterations =  2.1

     total cpu time spent up to now is       10.0 secs

     total energy              =    -608.41393767 Ry
     estimated scf accuracy    <       0.24624400 Ry

     iteration #  3     ecut=   100.00 Ry     beta= 0.50
     Davidson diagonalization with overlap
     ethr =  3.85E-04,  avg # of iterations =  2.7

     total cpu time spent up to now is       12.0 secs

     total energy              =    -608.44953675 Ry
     estimated scf accuracy    <       0.01310193 Ry

     iteration #  4     ecut=   100.00 Ry     beta= 0.50
     Davidson diagonalization with overlap
     ethr =  2.05E-05,  avg # of iterations =  4.7

     total cpu time spent up to now is       14.7 secs

     total energy              =    -608.45019581 Ry
     estimated scf accuracy    <       0.00167922 Ry

     iteration #  5     ecut=   100.00 Ry     beta= 0.50
     Davidson diagonalization with overlap
     ethr =  2.62E-06,  avg # of iterations =  3.9

     total cpu time spent up to now is       17.0 secs

     total energy              =    -608.45057639 Ry
     estimated scf accuracy    <       0.00004416 Ry

     iteration #  6     ecut=   100.00 Ry     beta= 0.50
     Davidson diagonalization with overlap
     ethr =  6.90E-08,  avg # of iterations =  2.1

     total cpu time spent up to now is       19.7 secs

     total energy              =    -608.45058796 Ry
     estimated scf accuracy    <       0.00000255 Ry

     iteration #  7     ecut=   100.00 Ry     beta= 0.50
     Davidson diagonalization with overlap
     ethr =  3.99E-09,  avg # of iterations =  2.0

     total cpu time spent up to now is       21.6 secs

     total energy              =    -608.45058712 Ry
     estimated scf accuracy    <       0.00000192 Ry

     iteration #  8     ecut=   100.00 Ry     beta= 0.50
     Davidson diagonalization with overlap
     ethr =  3.00E-09,  avg # of iterations =  2.0

     total cpu time spent up to now is       23.7 secs

     End of self-consistent calculation

          k = 0.0000 0.0000 0.0000 (  8467 PWs)   bands (ev):

   -64.2947 -64.2835 -64.2797 -64.2797 -31.1839 -31.1838 -31.1093 -31.1024
   -31.0811 -31.0630 -31.0630 -31.0439 -31.0384 -31.0308 -31.0308 -31.0088
    -9.0164  -7.4801  -7.3638  -7.3635   4.1148   4.1732   4.1732   5.9687
     6.8687   6.8687   6.9168   6.9170   7.6766   7.9194   8.1280   8.9059
    12.7343  15.9531  17.4300  18.2230  18.2230  20.8464

          k = 0.0000 0.0000 0.2006 (  8461 PWs)   bands (ev):

   -64.2936 -64.2846 -64.2797 -64.2797 -31.1828 -31.1828 -31.1033 -31.1003
   -31.0831 -31.0636 -31.0636 -31.0460 -31.0406 -31.0318 -31.0318 -31.0121
    -8.8725  -7.6281  -7.3421  -7.3418   4.3299   4.3617   4.3617   6.1023
     6.5109   6.5110   6.7678   6.7680   7.4010   7.4748   8.0020   8.7981
    13.5749  16.2386  17.9424  17.9424  18.7980  18.7980

          k = 0.0000 0.0000 0.4013 (  8472 PWs)   bands (ev):

   -64.2908 -64.2874 -64.2797 -64.2797 -31.1810 -31.1810 -31.0950 -31.0884
   -31.0869 -31.0650 -31.0647 -31.0647 -31.0334 -31.0334 -31.0317 -31.0209
    -8.4921  -8.0158  -7.3066  -7.3064   4.8921   4.8921   4.9993   5.7288
     5.7289   6.1012   6.4758   6.5378   6.5380   6.9945   8.2284   8.5313
    15.1828  16.3997  18.8829  18.8830  19.2328  20.0550

          k = 0.0162 0.2019 0.0000 (  8452 PWs)   bands (ev):

   -64.2933 -64.2831 -64.2812 -64.2801 -31.1761 -31.1744 -31.1102 -31.1048
   -31.0911 -31.0674 -31.0606 -31.0433 -31.0408 -31.0326 -31.0291 -31.0115
    -8.8651  -7.5277  -7.4494  -7.3550   4.3121   4.3744   4.4135   5.8149
     6.5380   6.7143   6.9771   7.0127   7.2505   7.5373   7.9877   8.4397
    13.5649  16.5244  17.7663  17.9746  18.0070  18.7839

          k = 0.0162 0.2019 0.2006 (  8462 PWs)   bands (ev):

   -64.2923 -64.2841 -64.2811 -64.2802 -31.1753 -31.1740 -31.1111 -31.0975
   -31.0936 -31.0686 -31.0626 -31.0482 -31.0395 -31.0317 -31.0292 -31.0133
    -8.7289  -7.5808  -7.4890  -7.3483   4.4150   4.5042   4.5592   5.9010
     6.0225   6.6107   6.6813   6.9566   7.0241   7.6469   7.7373   8.4601
    14.1608  16.7523  18.0975  18.1081  18.5492  19.3522

          k = 0.0162 0.2019 0.4013 (  8464 PWs)   bands (ev):

   -64.2898 -64.2866 -64.2808 -64.2804 -31.1738 -31.1734 -31.1074 -31.1002
   -31.0830 -31.0694 -31.0669 -31.0649 -31.0303 -31.0302 -31.0296 -31.0200
    -8.3715  -7.9313  -7.4087  -7.3544   4.7644   4.8391   5.0833   5.2236
     5.6629   5.8508   6.5366   6.8915   6.9968   7.1754   7.9289   8.2605
    15.5041  16.7198  18.5817  18.6550  19.4321  19.7701

          k = 0.0323 0.4039 0.0000 (  8452 PWs)   bands (ev):

   -64.2895 -64.2849 -64.2822 -64.2810 -31.1559 -31.1492 -31.1306 -31.1173
   -31.0932 -31.0789 -31.0544 -31.0469 -31.0409 -31.0368 -31.0244 -31.0178
    -8.4624  -7.9514  -7.3881  -7.3519   4.8768   4.8983   5.1182   5.4502
     5.7046   6.1830   6.5299   6.8213   7.2802   7.2998   7.6497   7.8036
    15.2003  16.8580  17.8870  18.7439  19.1881  19.2546

          k = 0.0323 0.4039 0.2006 (  8451 PWs)   bands (ev):

   -64.2888 -64.2845 -64.2829 -64.2814 -31.1555 -31.1504 -31.1309 -31.1198
   -31.0901 -31.0794 -31.0592 -31.0535 -31.0365 -31.0332 -31.0233 -31.0172
    -8.3493  -7.8747  -7.4759  -7.3864   4.6555   4.9459   4.9679   5.3647
     5.7508   5.7799   6.9739   6.9938   7.0574   7.3483   7.5388   7.8194
    15.5240  17.0977  17.9444  18.6913  19.4809  19.8892

          k = 0.0323 0.4039 0.4013 (  8444 PWs)   bands (ev):

   -64.2870 -64.2847 -64.2835 -64.2823 -31.1545 -31.1527 -31.1298 -31.1254
   -31.0808 -31.0768 -31.0688 -31.0673 -31.0273 -31.0268 -31.0232 -31.0197
    -8.0605  -7.7243  -7.6905  -7.5020   4.6214   4.7044   4.7141   5.0440
     5.6679   6.3353   6.3379   6.9773   7.3660   7.4308   7.5125   7.8205
    16.3728  17.4236  17.5789  18.0657  19.7405  19.9456

          k = 0.2181 0.2181 0.0000 (  8445 PWs)   bands (ev):

   -64.2907 -64.2826 -64.2826 -64.2817 -31.1520 -31.1520 -31.1329 -31.1161
   -31.0993 -31.0661 -31.0661 -31.0420 -31.0369 -31.0369 -31.0364 -31.0080
    -8.6618  -7.5784  -7.5782  -7.3611   4.5627   4.5628   4.5661   6.1900
     6.5491   6.5529   6.5531   6.9946   6.9947   7.2433   7.5984   7.9406
    14.1421  16.6147  18.3283  18.3284  18.3971  18.3972

          k = 0.2181 0.2181 0.2006 (  8444 PWs)   bands (ev):

   -64.2899 -64.2826 -64.2826 -64.2825 -31.1511 -31.1511 -31.1345 -31.1195
   -31.0914 -31.0718 -31.0718 -31.0464 -31.0336 -31.0328 -31.0328 -31.0107
    -8.5335  -7.5533  -7.5531  -7.4779   4.5142   4.5142   4.6172   6.2765
     6.2766   6.3044   6.5995   6.7824   7.1717   7.1718   7.4390   8.0796
    14.5229  16.6940  18.2783  18.2783  18.9389  18.9389

          k = 0.2181 0.2181 0.4013 (  8455 PWs)   bands (ev):

   -64.2876 -64.2848 -64.2826 -64.2826 -31.1496 -31.1496 -31.1335 -31.1272
   -31.0792 -31.0792 -31.0750 -31.0585 -31.0279 -31.0279 -31.0265 -31.0177
    -8.1995  -7.7943  -7.5122  -7.5119   4.3939   4.3940   4.9301   5.6406
     6.1208   6.1210   6.6206   7.0511   7.1997   7.1998   7.3105   7.8442
    15.4626  16.4078  18.7372  18.7372  19.3695  19.3696

          k = 0.2342 0.4200 0.0000 (  8467 PWs)   bands (ev):

   -64.2867 -64.2867 -64.2839 -64.2804 -31.1592 -31.1479 -31.1257 -31.1208
   -31.0874 -31.0780 -31.0603 -31.0478 -31.0453 -31.0363 -31.0301 -31.0104
    -8.2394  -7.9946  -7.5693  -7.2945   4.6786   4.9562   5.1671   5.5048
     5.7228   5.9510   6.3822   6.8068   7.2491   7.4465   7.6024   7.6452
    15.4720  17.1823  17.5915  18.7527  19.1827  19.5204

          k = 0.2342 0.4200 0.2006 (  8456 PWs)   bands (ev):

   -64.2864 -64.2861 -64.2841 -64.2810 -31.1608 -31.1511 -31.1247 -31.1212
   -31.0846 -31.0819 -31.0705 -31.0503 -31.0373 -31.0293 -31.0279 -31.0120
    -8.1360  -7.9300  -7.5830  -7.3673   4.2910   4.5852   4.7659   5.5606
     5.9449   6.1198   6.6559   7.0578   7.2802   7.3728   7.5575   7.7357
    15.5102  17.2333  17.3003  18.5802  19.3618  19.4118

          k = 0.2342 0.4200 0.4013 (  8450 PWs)   bands (ev):

   -64.2857 -64.2848 -64.2845 -64.2825 -31.1616 -31.1576 -31.1228 -31.1220
   -31.0900 -31.0843 -31.0699 -31.0581 -31.0268 -31.0237 -31.0224 -31.0164
    -7.8751  -7.7820  -7.6477  -7.5789   3.9370   4.0637   4.6076   4.9318
     6.4130   6.6859   6.8891   7.1528   7.2382   7.4764   7.5329   7.6743
    15.8308  16.5388  17.5304  18.0488  19.4995  19.5536

          k = 0.1696-0.3877 0.0000 (  8463 PWs)   bands (ev):

   -64.2908 -64.2845 -64.2826 -64.2798 -31.1789 -31.1740 -31.1055 -31.0938
   -31.0916 -31.0737 -31.0560 -31.0520 -31.0501 -31.0304 -31.0258 -31.0169
    -8.4516  -7.7584  -7.5404  -7.3149   4.7757   4.8534   4.9371   4.9441
     5.6363   5.9917   6.5646   7.1328   7.1498   7.2386   7.7576   8.3780
    15.6015  17.0630  18.3406  18.7787  18.9712  19.2424

          k = 0.1696-0.3877 0.2006 (  8456 PWs)   bands (ev):

   -64.2901 -64.2851 -64.2823 -64.2800 -31.1800 -31.1760 -31.1046 -31.0954
   -31.0946 -31.0713 -31.0647 -31.0567 -31.0418 -31.0247 -31.0236 -31.0178
    -8.3486  -7.6944  -7.6065  -7.3330   4.1528   4.6385   4.7613   5.0626
     5.8521   5.8941   6.8744   6.9534   7.3178   7.5675   7.8296   8.2777
    15.7600  16.7964  17.7712  18.5419  19.3030  19.7025

          k = 0.1696-0.3877 0.4013 (  8449 PWs)   bands (ev):

   -64.2886 -64.2866 -64.2816 -64.2807 -31.1812 -31.1797 -31.1034 -31.0996
   -31.0927 -31.0820 -31.0655 -31.0598 -31.0283 -31.0224 -31.0209 -31.0199
    -8.0911  -7.8045  -7.5461  -7.4064   3.9131   4.2726   4.4107   4.4654
     6.0620   6.4916   6.8620   7.3154   7.3961   7.5500   7.9953   8.1289
    16.4345  16.6710  16.9782  17.7002  19.0972  19.6671

          k = 0.1858-0.1858 0.0000 (  8463 PWs)   bands (ev):

   -64.2933 -64.2842 -64.2801 -64.2801 -31.1846 -31.1846 -31.1019 -31.0996
   -31.0824 -31.0635 -31.0635 -31.0489 -31.0446 -31.0251 -31.0251 -31.0206
    -8.7827  -7.5076  -7.4182  -7.4179   4.4297   4.4297   4.4439   5.2722
     6.5071   6.7564   6.7566   6.8279   6.8280   7.7028   8.0006   8.7985
    14.1661  17.3130  18.1698  18.1698  18.4635  18.4635

          k = 0.1858-0.1858 0.2006 (  8467 PWs)   bands (ev):

   -64.2924 -64.2851 -64.2801 -64.2801 -31.1849 -31.1849 -31.1004 -31.0979
   -31.0840 -31.0631 -31.0631 -31.0562 -31.0430 -31.0257 -31.0257 -31.0179
    -8.6550  -7.6193  -7.3946  -7.3944   4.2429   4.4801   4.4802   5.8082
     5.8695   6.2884   6.2885   7.0637   7.0638   7.8267   8.0688   8.7132
    14.5866  17.5789  17.7424  17.7424  19.3892  19.5290

          k = 0.1858-0.1858 0.4013 (  8461 PWs)   bands (ev):

   -64.2901 -64.2873 -64.2801 -64.2801 -31.1855 -31.1855 -31.0936 -31.0926
   -31.0883 -31.0764 -31.0625 -31.0625 -31.0305 -31.0268 -31.0268 -31.0203
    -8.3237  -7.9255  -7.3560  -7.3558   4.3195   4.5516   4.5517   4.9229
     5.9489   5.9490   6.7009   7.0351   7.0352   7.4906   8.2544   8.4999
    15.7837  17.3339  17.7172  17.7172  18.8224  19.8262

          k = 0.4362 0.4362 0.0000 (  8466 PWs)   bands (ev):

   -64.2873 -64.2873 -64.2833 -64.2798 -31.1804 -31.1742 -31.0991 -31.0991
   -31.0763 -31.0712 -31.0712 -31.0544 -31.0480 -31.0480 -31.0208 -31.0099
    -7.8940  -7.8937  -7.8646  -7.3227   4.6231   4.6232   4.9092   5.2097
     5.7621   6.0479   6.0481   6.7345   7.1378   7.2902   8.0848   8.0850
    16.3302  17.6250  17.7538  17.7538  19.8548  19.9940

          k = 0.4362 0.4362 0.2006 (  8480 PWs)   bands (ev):

   -64.2873 -64.2872 -64.2829 -64.2801 -31.1828 -31.1775 -31.0991 -31.0991
   -31.0841 -31.0841 -31.0718 -31.0544 -31.0358 -31.0358 -31.0197 -31.0109
    -7.8639  -7.8637  -7.7914  -7.3496   4.0627   4.0628   4.4358   4.8126
     6.3982   6.6783   6.6785   6.7854   7.2351   7.4184   8.0737   8.0739
    15.9028  16.9258  17.4454  17.4454  19.7956  19.7956

          k = 0.4362 0.4362 0.4013 (  8447 PWs)   bands (ev):

   -64.2873 -64.2872 -64.2820 -64.2810 -31.1856 -31.1834 -31.0991 -31.0991
   -31.0966 -31.0966 -31.0630 -31.0565 -31.0243 -31.0243 -31.0170 -31.0136
    -7.8146  -7.8143  -7.6183  -7.4474   3.4971   3.4971   4.0904   4.2554
     6.9209   7.0927   7.2008   7.4085   7.4086   7.5978   8.0104   8.0106
    15.5327  15.9403  16.9787  16.9788  19.7640  19.7640

          k = 0.3716-0.3716 0.0000 (  8468 PWs)   bands (ev):

   -64.2899 -64.2864 -64.2806 -64.2806 -31.1860 -31.1860 -31.0930 -31.0864
   -31.0832 -31.0643 -31.0643 -31.0613 -31.0536 -31.0428 -31.0158 -31.0158
    -8.2287  -7.7196  -7.5033  -7.5031   4.5292   4.7451   4.7452   4.9815
     5.3608   6.5185   6.5187   6.6107   6.9730   6.9732   8.2261   8.5306
    16.5379  17.5098  17.5098  18.2528  19.5681  20.0534

          k = 0.3716-0.3716 0.2006 (  8468 PWs)   bands (ev):

   -64.2895 -64.2867 -64.2806 -64.2806 -31.1885 -31.1885 -31.0930 -31.0923
   -31.0870 -31.0776 -31.0623 -31.0623 -31.0413 -31.0303 -31.0159 -31.0159
    -8.1548  -7.7391  -7.4768  -7.4766   3.8814   4.3618   4.4203   4.4204
     6.2191   6.7184   6.7185   7.1102   7.1103   7.1684   8.2530   8.4994
    16.3741  16.7368  16.7368  17.9630  19.7134  19.9655

          k = 0.3716-0.3716 0.4013 (  8437 PWs)   bands (ev):

   -64.2887 -64.2876 -64.2806 -64.2806 -31.1924 -31.1924 -31.1008 -31.0952
   -31.0906 -31.0886 -31.0593 -31.0593 -31.0265 -31.0220 -31.0160 -31.0160
    -7.9832  -7.8220  -7.4334  -7.4332   3.4383   3.6312   4.0186   4.0187
     6.8366   6.8368   7.2097   7.4168   7.4169   7.6000   8.3257   8.4197
    15.9633  15.9633  16.3654  17.0385  19.5669  19.7672

     the Fermi energy is    10.3058 ev

!    total energy              =    -608.45058751 Ry
     estimated scf accuracy    <       0.00000005 Ry
     smearing contrib. (-TS)   =      -0.00000000 Ry
     internal energy E=F+TS    =    -608.45058751 Ry

     The total energy is F=E-TS. E is the sum of the following terms:
     one-electron contribution =    -295.13457236 Ry
     hartree contribution      =     165.13957727 Ry
     xc contribution           =     -97.98682101 Ry
     ewald contribution        =    -380.35983249 Ry
     DFT-D3 Dispersion         =      -0.10893893 Ry

     convergence has been achieved in   8 iterations

     Forces acting on atoms (cartesian axes, Ry/au):

     atom    1 type  1   force =     0.00000000    0.00000000    0.00000000
     atom    2 type  1   force =     0.00000000    0.00000000    0.00000000
     atom    3 type  1   force =     0.00000000    0.00000000    0.00000000
     atom    4 type  1   force =     0.00000000    0.00000000    0.00000000
     atom    5 type  2   force =     0.00000000    0.00000000    0.00000000
     atom    6 type  2   force =     0.00000000    0.00000000    0.00000000
     atom    7 type  2   force =     0.00000000    0.00000000    0.00000000
     atom    8 type  2   force =     0.00000000    0.00000000    0.00000000

     Total force =     0.000000     Total SCF correction =     0.000000

     BFGS Geometry Optimization

     bfgs converged in   1 scf cycles and   0 bfgs steps
     (criteria: energy <  1.0E-04 Ry, force <  1.0E-03 Ry/Bohr)

     End of BFGS Geometry Optimization

     Final energy   =    -608.4505875129 Ry
Begin final coordinates

ATOMIC_POSITIONS (angstrom)
Mg            0.0000000000        0.0000000000        0.0000000000
Mg           -0.1684400000        2.1055000000        2.1055000000
Mg            2.1055000000       -0.1684400000        2.1055000000
Mg            1.9370600000        1.9370600000        0.0000000000
O             1.9370600000        1.9370600000        2.1055000000
O             2.1055000000       -0.1684400000        0.0000000000
O            -0.1684400000        2.1055000000        0.0000000000
O             0.0000000000        0.0000000000        2.1055000000
End final coordinates


 
     init_run     :      0.97s CPU      1.02s WALL (       1 calls)
     electrons    :     21.59s CPU     22.46s WALL (       1 calls)
     forces       :      5.17s CPU      5.20s WALL (       1 calls)

     Called by init_run:
     wfcinit      :      0.64s CPU      0.68s WALL (       1 calls)
     potinit      :      0.08s CPU      0.08s WALL (       1 calls)
     hinit0       :      0.20s CPU      0.20s WALL (       1 calls)

     Called by electrons:
     c_bands      :     14.89s CPU     15.55s WALL (       8 calls)
     sum_band     :      2.62s CPU      2.78s WALL (       8 calls)
     v_of_rho     :      0.09s CPU      0.11s WALL (       9 calls)
     mix_rho      :      0.02s CPU      0.03s WALL (       8 calls)

     Called by c_bands:
     init_us_2    :      0.22s CPU      0.26s WALL (     486 calls)
     cegterg      :     14.33s CPU     14.91s WALL (     216 calls)

     Called by *egterg:
     cdiaghg      :      1.52s CPU      1.54s WALL (     854 calls)
     h_psi        :     12.00s CPU     12.54s WALL (     881 calls)
     g_psi        :      0.03s CPU      0.03s WALL (     638 calls)

     Called by h_psi:
     h_psi:calbec :      0.55s CPU      0.58s WALL (     881 calls)
     vloc_psi     :     11.00s CPU     11.50s WALL (     881 calls)
     add_vuspsi   :      0.37s CPU      0.37s WALL (     881 calls)

     General routines
     calbec       :      0.65s CPU      0.69s WALL (     989 calls)
     fft          :      0.66s CPU      0.68s WALL (     100 calls)
     ffts         :      0.01s CPU      0.01s WALL (       8 calls)
     fftw         :     12.69s CPU     13.27s WALL (   49922 calls)
 
     Parallel routines
     fft_scatt_xy :      1.38s CPU      1.44s WALL (   50030 calls)
     fft_scatt_yz :      8.44s CPU      8.83s WALL (   50030 calls)
 
     PWSCF        :     27.90s CPU     28.87s WALL

 
   This run was terminated on:  13:34:47   4Feb2024            

=------------------------------------------------------------------------------=
   JOB DONE.
=------------------------------------------------------------------------------=
