# total energy = -24715.8252707 eV	

CRYSTAL	
PRIMVEC	
		9.89107489		0.00000000		0.00000000	
		0.00000000		8.62100153		0.00000000	
		-1.05188614		0.00000000		4.80946593	
PRIMCOORD
   40 1	
Si		2.73329469		0.78882212		1.01575998		 0.00008258		 0.00028250		 0.00039921	
Si		6.10589505		7.83217940		3.79370990		-0.00008258		-0.00028250		-0.00039921	
Si		6.63183812		0.78882212		1.38897496		-0.00008253		 0.00028234		-0.00039913	
Si		2.20735162		7.83217940		3.42049492		 0.00008253		-0.00028234		 0.00039913	
Si		7.67883312		5.09932190		1.01575998		 0.00009176		 0.00028755		 0.00040345	
Si		1.16035661		3.52167864		3.79370990		-0.00009176		-0.00028755		-0.00040345	
Si		1.68629968		5.09932190		1.38897496		-0.00009161		 0.00028732		-0.00040329	
Si		7.15289005		3.52167864		3.42049492		 0.00009161		-0.00028732		 0.00040329	
Mg		-0.26297104		7.80804023		1.20236797		0.00000000		-0.00075322		-0.00000000	
Mg		-0.78891411		0.81296030		3.60710291		-0.00000000		 0.00075322		0.00000000	
Mg		4.68256640		3.49753947		1.20236797		-0.00000002		-0.00075380		 0.00000001	
Mg		4.15662432		5.12346008		3.60710291		 0.00000002		 0.00075380		-0.00000001	
Mg		-0.26297104		2.36387788		1.20236797		 0.00000001		 0.00031993		 0.00000004	
Mg		-0.78891411		6.25712167		3.60710291		-0.00000001		-0.00031993		-0.00000004	
Mg		4.68256640		6.67437765		1.20236797		 0.00000001		 0.00032058		 0.00000002	
Mg		4.15662432		1.94662190		3.60710291		-0.00000001		-0.00032058		-0.00000002	
O		1.05555375		0.78795863		0.66851599		-0.00006375		-0.00082982		 0.00035931	
O		7.78363598		7.83304091		4.14095389		 0.00006375		 0.00082982		-0.00035931	
O		8.30957905		0.78795863		1.73621895		 0.00006375		-0.00082979		-0.00035936	
O		0.52961068		7.83304091		3.07325192		-0.00006375		 0.00082979		 0.00035936	
O		6.00109120		5.09846039		0.66851599		-0.00006949		-0.00083075		 0.00035824	
O		2.83809854		3.52254114		4.14095389		 0.00006949		 0.00083075		-0.00035824	
O		3.36404062		5.09846039		1.73621895		 0.00006943		-0.00083072		-0.00035830	
O		5.47514911		3.52254114		3.07325192		-0.00006943		 0.00083072		 0.00035830	
O		3.37256673		2.04834962		1.76507616		-0.00014452		 0.00056520		-0.00017070	
O		5.46662301		6.57265091		3.04439471		 0.00014452		-0.00056520		 0.00017070	
O		5.99256608		2.04834962		0.63965977		 0.00014443		 0.00056527		 0.00017063	
O		2.84662366		6.57265091		4.16981110		-0.00014443		-0.00056527		-0.00017063	
O		8.31810417		6.35885038		1.76507616		-0.00014863		 0.00055970		-0.00017370	
O		0.52108556		2.26215015		3.04439471		 0.00014863		-0.00055970		 0.00017370	
O		1.04702765		6.35885038		0.63965977		 0.00014854		 0.00055984		 0.00017361	
O		7.79216209		2.26215015		4.16981110		-0.00014854		-0.00055984		-0.00017361	
O		2.56863895		0.52846727		4.40066582		-0.00016234		-0.00035318		 0.00033526	
O		6.27055078		8.09253326		0.40880505		 0.00016234		 0.00035318		-0.00033526	
O		5.74460870		0.52846727		2.81353999		 0.00016237		-0.00035312		-0.00033529	
O		3.09458104		8.09253326		1.99592989		-0.00016237		 0.00035312		 0.00033529	
O		7.51417640		4.83896705		4.40066582		-0.00016408		-0.00035378		 0.00033497	
O		1.32501433		3.78203250		0.40880505		 0.00016408		 0.00035378		-0.00033497	
O		0.79907126		4.83896705		2.81353999		 0.00016410		-0.00035368		-0.00033500	
O		8.04011848		3.78203250		1.99592989		-0.00016410		 0.00035368		 0.00033500	
