# total energy = -24716.0954135 eV	

CRYSTAL	
PRIMVEC	
		9.43102463		0.00000000		0.00000000	
		0.00000000		8.62100336		0.00000000	
		-1.00296118		0.00000000		4.80947362	
PRIMCOORD
   40 1	
Si		2.60616463		0.78882222		1.01576002		-0.00019631		-0.00037629		 0.00000386	
Si		5.82189977		7.83217831		3.79370982		 0.00019631		 0.00037629		-0.00000386	
Si		6.32337941		0.78882222		1.38897490		 0.00019629		-0.00037629		-0.00000385	
Si		2.10468499		7.83217831		3.42049494		-0.00019629		 0.00037629		 0.00000385	
Si		7.32167789		5.09932201		1.01576002		-0.00019689		-0.00037676		 0.00000359	
Si		1.10638651		3.52167852		3.79370982		 0.00019689		 0.00037676		-0.00000359	
Si		1.60786710		5.09932201		1.38897490		 0.00019688		-0.00037678		-0.00000355	
Si		6.82019730		3.52167852		3.42049494		-0.00019688		 0.00037678		 0.00000355	
Mg		-0.25073982		7.80803960		1.20236793		-0.00000000		-0.00061399		0.00000000	
Mg		-0.75222041		0.81295998		3.60710285		0.00000000		 0.00061399		-0.00000000	
Mg		4.46477249		3.49753981		1.20236793		-0.00000003		-0.00061392		-0.00000001	
Mg		3.96329191		5.12345978		3.60710285		 0.00000003		 0.00061392		 0.00000001	
Mg		-0.25073982		2.36387784		1.20236793		-0.00000001		 0.00060754		-0.00000001	
Mg		-0.75222041		6.25712175		3.60710285		 0.00000001		-0.00060754		 0.00000001	
Mg		4.46477249		6.67437763		1.20236793		-0.00000003		 0.00060745		-0.00000001	
Mg		3.96329191		1.94662196		3.60710285		 0.00000003		-0.00060745		 0.00000001	
O		1.00645820		0.78795928		0.66851629		-0.00048092		 0.00025377		-0.00034517	
O		7.42160714		7.83304031		4.14095355		 0.00048092		-0.00025377		 0.00034517	
O		7.92308679		0.78795928		1.73621863		 0.00048092		 0.00025375		 0.00034517	
O		0.50497761		7.83304031		3.07325216		-0.00048092		-0.00025375		-0.00034517	
O		5.72197052		5.09846002		0.66851629		-0.00048057		 0.00025383		-0.00034509	
O		2.70609388		3.52254051		4.14095355		 0.00048057		-0.00025383		 0.00034509	
O		3.20757353		5.09846002		1.73621863		 0.00048058		 0.00025381		 0.00034509	
O		5.22049087		3.52254051		3.07325216		-0.00048058		-0.00025381		-0.00034509	
O		3.21570307		2.04834970		1.76507568		-0.00003680		-0.00044975		-0.00049440	
O		5.21236133		6.57265083		3.04439511		 0.00003680		 0.00044975		 0.00049440	
O		5.71384192		2.04834970		0.63966019		 0.00003681		-0.00044976		 0.00049444	
O		2.71422248		6.57265083		4.16981060		-0.00003681		 0.00044976		-0.00049444	
O		7.93121539		6.35884950		1.76507568		-0.00003657		-0.00044936		-0.00049419	
O		0.49684901		2.26215009		3.04439511		 0.00003657		 0.00044936		 0.00049419	
O		0.99832866		6.35884950		0.63966019		 0.00003662		-0.00044936		 0.00049423	
O		7.42973574		2.26215009		4.16981060		-0.00003662		 0.00044936		-0.00049423	
O		2.44916731		0.52846652		4.40066605		-0.00090414		-0.00056491		 0.00042410	
O		5.97889804		8.09253306		0.40880474		 0.00090414		 0.00056491		-0.00042410	
O		5.47741745		0.52846652		2.81353966		 0.00090414		-0.00056489		-0.00042415	
O		2.95064695		8.09253306		1.99593018		-0.00090414		 0.00056489		 0.00042415	
O		7.16467962		4.83896726		4.40066605		-0.00090415		-0.00056487		 0.00042414	
O		1.26338478		3.78203327		0.40880474		 0.00090415		 0.00056487		-0.00042414	
O		0.76190513		4.83896726		2.81353966		 0.00090411		-0.00056485		-0.00042414	
O		7.66615927		3.78203327		1.99593018		-0.00090411		 0.00056485		 0.00042414	
