# total energy = -18390.5276546 eV	

CRYSTAL	
PRIMVEC	
		4.81499975		0.00000000		0.00000000	
		0.00000000		11.91099969		0.00000000	
		0.00000000		0.00000000		6.36999910	
PRIMCOORD
   28 1	
Mg		0.00000000		0.00000000		0.00000000		0.00000000		0.00000000		-0.00000000	
Mg		2.40749987		5.95549985		0.00000000		0.00000000		0.00000000		-0.00000000	
Mg		0.00000000		0.00000000		3.18500003		0.00000000		0.00000000		0.00000000	
Mg		2.40749987		5.95549985		3.18500003		-0.00000000		-0.00000000		0.00000000	
Ca		4.73314475		3.06112694		1.59250002		-0.00012512		-0.00023016		0.00000000	
Ca		0.08185500		8.84987275		4.77749957		 0.00012512		 0.00023016		0.00000000	
Ca		2.32564488		2.89437291		4.77749957		-0.00012512		 0.00023016		0.00000000	
Ca		2.48935487		9.01662631		1.59250002		 0.00012512		-0.00023016		0.00000000	
Si		1.94044490		1.02434594		1.59250002		 0.00028986		-0.00027779		-0.00000000	
Si		2.87455485		10.88665328		4.77749957		-0.00028986		 0.00027779		0.00000000	
Si		4.34794477		4.93115391		4.77749957		 0.00028986		 0.00027779		0.00000000	
Si		0.46705498		6.97984578		1.59250002		-0.00028986		-0.00027779		0.00000000	
O		3.67865981		0.79803710		1.59250002		-0.00042696		 0.00034773		0.00000000	
O		1.13633994		11.11296260		4.77749957		 0.00042696		-0.00034773		0.00000000	
O		1.27115993		5.15746275		4.77749957		-0.00042696		-0.00034773		0.00000000	
O		3.54383981		6.75353646		1.59250002		 0.00042696		 0.00034773		-0.00000000	
O		3.54383981		5.52670390		1.59250002		-0.00022563		-0.00046300		0.00000000	
O		1.27115993		6.38429580		4.77749957		 0.00022563		 0.00046300		0.00000000	
O		1.13633994		0.42879595		4.77749957		-0.00022563		 0.00046300		0.00000000	
O		3.67865981		11.48220326		1.59250002		 0.00022563		-0.00046300		0.00000000	
O		1.20374994		1.82238303		0.19110012		-0.00034119		-0.00000230		-0.00000325	
O		3.61124981		10.08861666		6.17889946		 0.00034119		 0.00000230		 0.00000325	
O		3.61124981		4.13311682		6.17889946		-0.00034119		 0.00000230		 0.00000325	
O		1.20374994		7.77788240		0.19110012		 0.00034119		-0.00000230		-0.00000325	
O		3.61124981		10.08861666		3.37609967		 0.00034119		 0.00000230		-0.00000325	
O		1.20374994		1.82238303		2.99389991		-0.00034119		-0.00000230		 0.00000325	
O		1.20374994		7.77788240		2.99389991		 0.00034119		-0.00000230		 0.00000325	
O		3.61124981		4.13311682		3.37609967		-0.00034119		 0.00000230		-0.00000325	
