# total energy = -18359.015907 eV	

CRYSTAL	
PRIMVEC	
		4.81499975		0.00000000		0.00000000	
		0.00000000		10.80300084		0.00000000	
		0.00000000		0.00000000		6.36999910	
PRIMCOORD
   28 1	
Mg		0.00000000		0.00000000		0.00000000		0.00000000		0.00000000		0.00000000	
Mg		2.40749987		5.40149994		0.00000000		0.00000000		0.00000000		0.00000000	
Mg		0.00000000		0.00000000		3.18500003		0.00000000		0.00000000		0.00000000	
Mg		2.40749987		5.40149994		3.18500003		0.00000000		0.00000000		0.00000000	
Ca		4.73314475		2.77637074		1.59250002		-0.00045620		 0.00078233		0.00000000	
Ca		0.08185500		8.02662865		4.77749957		 0.00045620		-0.00078233		0.00000000	
Ca		2.32564488		2.62512871		4.77749957		-0.00045620		-0.00078233		0.00000000	
Ca		2.48935487		8.17787068		1.59250002		 0.00045620		 0.00078233		0.00000000	
Si		1.94044490		0.92905805		1.59250002		 0.00056342		-0.00015033		0.00000000	
Si		2.87455485		9.87394135		4.77749957		-0.00056342		 0.00015033		-0.00000000	
Si		4.34794477		4.47244189		4.77749957		 0.00056342		 0.00015033		0.00000000	
Si		0.46705498		6.33055751		1.59250002		-0.00056342		-0.00015033		0.00000000	
O		3.67865981		0.72380087		1.59250002		 0.00094005		 0.00064415		-0.00000000	
O		1.13633994		10.07919853		4.77749957		-0.00094005		-0.00064415		0.00000000	
O		1.27115993		4.67769858		4.77749957		 0.00094005		-0.00064415		0.00000000	
O		3.54383981		6.12530081		1.59250002		-0.00094005		 0.00064415		-0.00000000	
O		3.54383981		5.01259193		1.59250002		 0.00031043		-0.00067607		0.00000000	
O		1.27115993		5.79040747		4.77749957		-0.00031043		 0.00067607		0.00000000	
O		1.13633994		0.38890801		4.77749957		 0.00031043		 0.00067607		0.00000000	
O		3.67865981		10.41409139		1.59250002		-0.00031043		-0.00067607		0.00000000	
O		1.20374994		1.65285893		0.19110012		-0.00052151		-0.00016047		 0.00044893	
O		3.61124981		9.15014047		6.17889946		 0.00052151		 0.00016047		-0.00044893	
O		3.61124981		3.74864101		6.17889946		-0.00052151		 0.00016047		-0.00044893	
O		1.20374994		7.05435887		0.19110012		 0.00052151		-0.00016047		 0.00044893	
O		3.61124981		9.15014047		3.37609967		 0.00052151		 0.00016047		 0.00044893	
O		1.20374994		1.65285893		2.99389991		-0.00052151		-0.00016047		-0.00044893	
O		1.20374994		7.05435887		2.99389991		 0.00052151		-0.00016047		-0.00044893	
O		3.61124981		3.74864101		3.37609967		-0.00052151		 0.00016047		 0.00044893	
