# total energy = -18357.3193088 eV	

CRYSTAL	
PRIMVEC	
		4.81499975		0.00000000		0.00000000	
		0.00000000		10.24900142		0.00000000	
		0.00000000		0.00000000		6.36999910	
PRIMCOORD
   28 1	
Mg		0.00000000		0.00000000		0.00000000		0.00000000		0.00000000		0.00000000	
Mg		2.40749987		5.12449975		0.00000000		0.00000000		-0.00000000		0.00000000	
Mg		0.00000000		0.00000000		3.18500003		0.00000000		-0.00000000		-0.00000000	
Mg		2.40749987		5.12449975		3.18500003		0.00000000		0.00000000		-0.00000000	
Ca		4.73314475		2.63399265		1.59250002		 0.00049625		-0.00032453		0.00000000	
Ca		0.08185500		7.61500636		4.77749957		-0.00049625		 0.00032453		0.00000000	
Ca		2.32564488		2.49050710		4.77749957		 0.00049625		 0.00032453		0.00000000	
Ca		2.48935487		7.75849239		1.59250002		-0.00049625		-0.00032453		0.00000000	
Si		1.94044490		0.88141411		1.59250002		-0.00027769		-0.00014858		0.00000000	
Si		2.87455485		9.36758538		4.77749957		 0.00027769		 0.00014858		0.00000000	
Si		4.34794477		4.24308563		4.77749957		-0.00027769		 0.00014858		0.00000000	
Si		0.46705498		6.00591386		1.59250002		 0.00027769		-0.00014858		0.00000000	
O		3.67865981		0.68668300		1.59250002		-0.00023935		 0.00038135		0.00000000	
O		1.13633994		9.56231649		4.77749957		 0.00023935		-0.00038135		0.00000000	
O		1.27115993		4.43781674		4.77749957		-0.00023935		-0.00038135		-0.00000000	
O		3.54383981		5.81118275		1.59250002		 0.00023935		 0.00038135		0.00000000	
O		3.54383981		4.75553594		1.59250002		-0.00029483		-0.00045256		0.00000000	
O		1.27115993		5.49346355		4.77749957		 0.00029483		 0.00045256		0.00000000	
O		1.13633994		0.36896380		4.77749957		-0.00029483		 0.00045256		0.00000000	
O		3.67865981		9.88003569		1.59250002		 0.00029483		-0.00045256		0.00000000	
O		1.20374994		1.56809712		0.19110012		-0.00020441		 0.00023098		 0.00016893	
O		3.61124981		8.68090238		6.17889946		 0.00020441		-0.00023098		-0.00016893	
O		3.61124981		3.55640263		6.17889946		-0.00020441		-0.00023098		-0.00016893	
O		1.20374994		6.69259686		0.19110012		 0.00020441		 0.00023098		 0.00016893	
O		3.61124981		8.68090238		3.37609967		 0.00020441		-0.00023098		 0.00016893	
O		1.20374994		1.56809712		2.99389991		-0.00020441		 0.00023098		-0.00016893	
O		1.20374994		6.69259686		2.99389991		 0.00020441		 0.00023098		-0.00016893	
O		3.61124981		3.55640263		3.37609967		-0.00020441		-0.00023098		 0.00016893	
