# total energy = -24712.935934 eV	

CRYSTAL	
PRIMVEC	
		9.53870002		0.00000000		0.00000000	
		0.00000000		8.66009990		0.69280532	
		-1.68714803		0.39873674		4.98419015	
PRIMCOORD
   40 1	
Mg		-0.42178796		7.93014611		1.87248497		 0.00060748		-0.00021269		 0.00009318	
Mg		-1.26536388		1.12868862		3.80451432		-0.00060748		 0.00021269		-0.00009318	
Mg		4.34756205		3.60009616		1.52608135		 0.00060242		-0.00020400		 0.00010880	
Mg		3.50398613		5.45873857		4.15091793		-0.00060242		 0.00020400		-0.00010880	
Mg		-0.42178796		2.57300805		1.44391404		-0.00014205		 0.00042179		-0.00019449	
Mg		-1.26536388		6.48582668		4.23308525		 0.00014205		-0.00042179		 0.00019449	
Mg		4.34756205		6.90305800		1.79031765		-0.00014861		 0.00039812		-0.00019857	
Mg		3.50398613		2.15577673		3.88668068		 0.00014861		-0.00039812		 0.00019857	
Si		2.37296148		0.89452498		1.28833975		 0.00053429		 0.00037135		 0.00045996	
Si		5.47858670		8.16430975		4.38865859		-0.00053429		-0.00037135		-0.00045996	
Si		6.32216262		0.89795414		1.33120381		-0.00054401		-0.00003269		-0.00019197	
Si		1.52938461		8.16088059		4.34579548		 0.00054401		 0.00003269		 0.00019197	
Si		7.14231149		5.22457493		1.63474432		 0.00079041		 0.00037437		 0.00066132	
Si		0.70923669		3.83425980		4.04225497		-0.00079041		-0.00037437		-0.00066132	
Si		1.55281261		5.22800409		1.67760837		-0.00042336		-0.00025398		-0.00008497	
Si		6.29873462		3.83083064		3.99939092		 0.00042336		 0.00025398		 0.00008497	
O		0.84504584		0.77208241		0.74518328		 0.00041083		 0.00001554		-0.00015678	
O		7.00650234		8.28675328		4.93181601		-0.00041083		-0.00001554		 0.00015678	
O		7.85007827		0.86139803		1.86164233		 0.00036390		-0.00067063		-0.00047897	
O		0.00146991		8.19743670		3.81535791		-0.00036390		 0.00067063		 0.00047897	
O		5.61439585		5.10213236		1.09158689		 0.00020849		 0.00003013		-0.00023107	
O		2.23715233		3.95670428		4.58541240		-0.00020849		-0.00003013		 0.00023107	
O		3.08072825		5.19144893		2.20804594		 0.00032287		-0.00066375		-0.00049123	
O		4.77081993		3.86738675		3.46895430		-0.00032287		 0.00066375		 0.00049123	
O		2.93192644		2.35846647		1.76301122		 0.00068843		 0.00061844		-0.00004218	
O		4.91962174		6.70037017		3.91398807		-0.00068843		-0.00061844		 0.00004218	
O		5.76319766		2.30431718		1.08615842		-0.00064712		-0.00046669		 0.00012604	
O		2.08834861		6.75451755		4.59084087		 0.00064712		 0.00046669		-0.00012604	
O		7.70127645		6.68851547		2.10941483		 0.00063935		 0.00053796		-0.00008167	
O		0.15027173		2.37032022		3.56758446		-0.00063935		-0.00053796		 0.00008167	
O		0.99384765		6.63436713		1.43256203		-0.00071654		-0.00025368		 0.00003259	
O		6.85769958		2.42446760		4.24443726		 0.00071654		 0.00025368		-0.00003259	
O		3.33603347		0.06657822		0.13309539		 0.00016206		 0.00028929		 0.00005175	
O		4.51551471		8.99225747		5.54390390		-0.00016206		-0.00028929		-0.00005175	
O		5.35909063		0.24537066		2.36800708		-0.00024039		-0.00026805		 0.00001819	
O		2.49245659		8.81346408		3.30899221		 0.00024039		 0.00026805		-0.00001819	
O		8.10538348		4.39662817		0.47949900		 0.00014547		 0.00028011		 0.00004717	
O		-0.25383530		4.66220656		5.19750029		-0.00014547		-0.00028011		-0.00004717	
O		0.58974062		4.57542061		2.71441070		-0.00023200		-0.00034355		 0.00011240	
O		7.26180660		4.48341412		2.96258764		 0.00023200		 0.00034355		-0.00011240	
