# total energy = -24715.0233 eV	

CRYSTAL	
PRIMVEC	
		9.53870002		0.00000000		0.00000000	
		0.00000000		8.66009990		-0.34640743	
		-1.68714803		-0.19936837		4.98419015	
PRIMCOORD
   40 1	
Mg		-0.42178796		7.78062127		0.93282858		 0.00048704		-0.00039188		-0.00002650	
Mg		-1.26536388		0.68011217		3.70495795		-0.00048704		 0.00039188		 0.00002650	
Mg		4.34756205		3.45057132		1.10603135		 0.00048473		-0.00042810		-0.00002401	
Mg		3.50398613		5.01016212		3.53175615		-0.00048473		 0.00042810		 0.00002401	
Mg		-0.42178796		2.42348321		1.14711453		 0.00035330		 0.00043234		 0.00022269	
Mg		-1.26536388		6.03725023		3.49067201		-0.00035330		-0.00043234		-0.00022269	
Mg		4.34756205		6.75353316		0.97391272		 0.00034637		 0.00046634		 0.00021745	
Mg		3.50398613		1.70720028		3.66387382		-0.00034637		-0.00046634		-0.00021745	
Si		2.37296148		0.74757081		1.19275434		-0.00034323		 0.00003555		-0.00018528	
Si		5.47858670		7.71316072		3.44503410		 0.00034323		-0.00003555		 0.00018528	
Si		6.32216262		0.74585671		1.23561840		 0.00000035		 0.00006328		 0.00038152	
Si		1.52938461		7.71487578		3.40217004		-0.00000035		-0.00006328		-0.00038152	
Si		7.14231149		5.07762077		1.01955158		 0.00017875		 0.00039123		 0.00007114	
Si		0.70923669		3.38311077		3.61823591		-0.00017875		-0.00039123		-0.00007114	
Si		1.55281261		5.07590666		1.06241564		-0.00040143		 0.00031696		 0.00017726	
Si		6.29873462		3.38482487		3.57537185		 0.00040143		-0.00031696		-0.00017726	
O		0.84504584		0.68954404		0.65913562		 0.00028429		-0.00010673		 0.00023065	
O		7.00650234		7.77118940		3.97865092		-0.00028429		 0.00010673		-0.00023065	
O		7.85007827		0.64488480		1.77559467		-0.00036620		 0.00017196		 0.00055312	
O		0.00146991		7.81584673		2.86219187		 0.00036620		-0.00017196		-0.00055312	
O		5.61439585		5.01959399		0.48593381		-0.00004732		-0.00013358		 0.00009970	
O		2.23715233		3.44113945		4.15185273		 0.00004732		 0.00013358		-0.00009970	
O		3.08072825		4.97493475		1.60239286		-0.00007899		 0.00014680		 0.00065626	
O		4.77081993		3.48579678		3.03539367		 0.00007899		-0.00014680		-0.00065626	
O		2.93192644		2.16832870		1.49520554		 0.00019510		 0.00061575		 0.00064617	
O		4.91962174		6.29240378		3.14258100		-0.00019510		-0.00061575		-0.00064617	
O		5.76319766		2.19540335		0.81835274		-0.00066222		-0.00008791		-0.00023417	
O		2.08834861		6.26533009		3.81943380		 0.00066222		 0.00008791		 0.00023417	
O		7.70127645		6.49837770		1.32200373		-0.00001228		 0.00024770		 0.00053382	
O		0.15027173		1.96235383		3.31578281		 0.00001228		-0.00024770		-0.00053382	
O		0.99384765		6.52545330		0.64515093		-0.00050333		-0.00035250		-0.00014994	
O		6.85769958		1.93527919		3.99263561		 0.00050333		 0.00035250		 0.00014994	
O		3.33603347		0.05114746		0.12634104		 0.00016699		 0.00038319		-0.00042100	
O		4.51551471		8.40958502		4.51144741		-0.00016699		-0.00038319		 0.00042100	
O		5.35909063		-0.03824923		2.36125177		 0.00013184		-0.00001095		 0.00024527	
O		2.49245659		8.49898172		2.27653476		-0.00013184		 0.00001095		-0.00024527	
O		8.10538348		4.38119741		-0.04686077		 0.00010210		 0.00036776		-0.00045470	
O		-0.25383530		4.07953507		4.68464922		-0.00010210		-0.00036776		 0.00045470	
O		0.58974062		4.29180072		2.18804997		 0.00018894		-0.00002390		 0.00028673	
O		7.26180660		4.16893177		2.44973657		-0.00018894		 0.00002390		-0.00028673	
