# total energy = -24709.3570148 eV	

CRYSTAL	
PRIMVEC	
		9.53870002		0.00000000		0.00000000	
		0.00000000		8.66009990		1.03921275	
		-1.68714803		0.59810511		4.98419015	
PRIMCOORD
   40 1	
Mg		-0.42178796		7.97998773		2.18570345		 0.00066417		 0.00018414		 0.00011537	
Mg		-1.26536388		1.27821537		3.83770041		-0.00066417		-0.00018414		-0.00011537	
Mg		4.34756205		3.64993778		1.66609707		 0.00065899		 0.00018065		 0.00011549	
Mg		3.50398613		5.60826532		4.35730583		-0.00065899		-0.00018065		-0.00011549	
Mg		-0.42178796		2.62284967		1.54284657		-0.00064440		-0.00003693		-0.00015308	
Mg		-1.26536388		6.63535343		4.48055633		 0.00064440		 0.00003693		 0.00015308	
Mg		4.34756205		6.95289962		2.06245295		-0.00064674		-0.00003865		-0.00015687	
Mg		3.50398613		2.30530253		3.96094995		 0.00064674		 0.00003865		 0.00015687	
Si		2.37296148		0.94351002		1.32020282		 0.00053835		 0.00046941		-0.00045049	
Si		5.47858670		8.31469308		4.70320103		-0.00053835		-0.00046941		 0.00045049	
Si		6.32216262		0.94865424		1.36306688		-0.00002766		-0.00065294		 0.00052354	
Si		1.52938461		8.30954982		4.66033698		 0.00002766		 0.00065294		-0.00052354	
Si		7.14231149		5.27355997		1.83980824		 0.00047652		 0.00049007		-0.00049829	
Si		0.70923669		3.98464313		4.18359466		-0.00047652		-0.00049007		 0.00049829	
Si		1.55281261		5.27870324		1.88267325		-0.00002978		-0.00063562		 0.00051750	
Si		6.29873462		3.97949891		4.14073060		 0.00002978		 0.00063562		-0.00051750	
O		0.84504584		0.79959393		0.77386519		 0.00032222		-0.00044558		 0.00016134	
O		7.00650234		8.45860822		5.24953771		-0.00032222		 0.00044558		-0.00016134	
O		7.85007827		0.93356974		1.89032425		 0.00079090		-0.00030171		 0.00005137	
O		0.00146991		8.32463336		4.13307866		-0.00079090		 0.00030171		-0.00005137	
O		5.61439585		5.12964483		1.29347062		 0.00036169		-0.00044544		 0.00017872	
O		2.23715233		4.12855827		4.72993229		-0.00036169		 0.00044544		-0.00017872	
O		3.08072825		5.26361969		2.40992967		 0.00079330		-0.00029208		 0.00003520	
O		4.77081993		3.99458341		3.61347324		-0.00079330		 0.00029208		-0.00003520	
O		2.93192644		2.42184541		1.85227914		 0.00051698		 0.00027398		 0.00027026	
O		4.91962174		6.83635864		4.17112376		-0.00051698		-0.00027398		-0.00027026	
O		5.76319766		2.34062243		1.17542634		 0.00034021		-0.00072804		-0.00063753	
O		2.08834861		6.91758068		4.84797656		-0.00034021		 0.00072804		 0.00063753	
O		7.70127645		6.75189441		2.37188456		 0.00052608		 0.00027841		 0.00027266	
O		0.15027173		2.50630774		3.65151834		-0.00052608		-0.00027841		-0.00027266	
O		0.99384765		6.67067238		1.69503176		 0.00033890		-0.00074934		-0.00060219	
O		6.85769958		2.58753072		4.32837114		-0.00033890		 0.00074934		 0.00060219	
O		3.33603347		0.07172244		0.13534748		-0.00078336		-0.00009245		-0.00020471	
O		4.51551471		9.18648066		5.88805638		 0.00078336		 0.00009245		 0.00020471	
O		5.35909063		0.33991062		2.37025821		-0.00093778		 0.00010383		-0.00058704	
O		2.49245659		8.91829248		3.65314469		 0.00093778		-0.00010383		 0.00058704	
O		8.10538348		4.40177239		0.65495290		-0.00077083		-0.00008637		-0.00020091	
O		-0.25383530		4.85643071		5.36845001		 0.00077083		 0.00008637		 0.00020091	
O		0.58974062		4.66996057		2.88986364		-0.00094046		 0.00013672		-0.00062596	
O		7.26180660		4.58824158		3.13353927		 0.00094046		-0.00013672		 0.00062596	
