# total energy = -44011.6088058 eV

CRYSTAL
PRIMVEC
		9.81799975		0.00000000		0.00000000
		0.00000000		18.04700533		-0.72187825
		-1.33411890		-0.20413585		5.10350427
PRIMECORD
   82 1
Si		2.35753443		1.45544090		1.45204093		 0.00012462		-0.00008128		-0.00024116
Si		6.12634446		16.38741974		2.92958313		-0.00012462		 0.00008128		 0.00024116
Si		6.12634446		1.37231484		3.53018650		-0.00003391		-0.00000656		-0.00039074
Si		2.35753443		16.47054580		0.85143559		 0.00003391		 0.00000656		 0.00039074
Si		7.26653430		10.47894062		1.09110082		 0.00032780		-0.00003071		-0.00016183
Si		1.21734557		7.36392002		3.29052323		-0.00032780		 0.00003071		 0.00016183
Si		1.21734557		10.39581456		3.16924737		-0.00023447		 0.00007428		-0.00042587
Si		7.26653430		7.44704510		1.21237570		 0.00023447		-0.00007428		 0.00042587
Si		1.76155730		2.92367171		3.98072371		-0.00015813		-0.00027353		 0.00004971
Si		6.72232257		14.91918795		0.40090035		 0.00015813		 0.00027353		-0.00004971
Si		6.72232257		3.04787137		0.87575183		 0.00034461		-0.00048220		-0.00000061
Si		1.76155730		14.79498829		3.50587124		-0.00034461		 0.00048220		 0.00000061
Si		6.67055717		11.94717241		3.61978360		 0.00017485		 0.00002048		 0.00008649
Si		1.81332172		5.89568823		0.76184045		-0.00017485		-0.00002048		-0.00008649
Si		1.81332172		12.07137207		0.51481173		 0.00001292		-0.00020468		-0.00002367
Si		6.67055717		5.77148857		3.86681135		-0.00001292		 0.00020468		 0.00002367
O		2.58846753		2.01845410		2.91735874		-0.00020341		 0.00009907		-0.00009378
O		5.89541038		15.82440655		1.46426532		 0.00020341		-0.00009907		 0.00009378
O		5.89541038		2.05454605		2.01505903		 0.00065180		 0.00033563		 0.00016065
O		2.58846753		15.78831460		2.36656404		-0.00065180		-0.00033563		-0.00016065
O		7.49746838		11.04195382		2.55641863		-0.00023071		 0.00005548		-0.00017029
O		0.98641051		6.80090683		1.82520543		 0.00023071		-0.00005548		 0.00017029
O		0.98641051		11.07804576		1.65411893		 0.00068545		 0.00028774		 0.00021491
O		7.49746838		6.76481488		2.72750415		-0.00068545		-0.00028774		-0.00021491
O		0.80703271		1.50772273		1.04588893		 0.00037022		 0.00003832		 0.00012156
O		7.67684716		16.33513693		3.33573512		-0.00037022		-0.00003832		-0.00012156
O		7.67684716		1.39222084		3.93345102		-0.00033780		 0.00027534		-0.00039127
O		0.80703271		16.45063981		0.44817205		 0.00033780		-0.00027534		 0.00039127
O		5.71603258		10.53122343		0.68494883		 0.00021930		 0.00002543		 0.00009658
O		2.76784729		7.31163721		3.69667523		-0.00021930		-0.00002543		-0.00009658
O		2.76784729		10.41572154		3.57251091		-0.00020813		 0.00026085		-0.00036220
O		5.71603258		7.42714009		0.80911216		 0.00020813		-0.00026085		 0.00036220
O		2.52914030		4.31371197		3.86958297		 0.00043423		 0.00008293		-0.00003680
O		5.95473957		13.52914769		0.51204109		-0.00043423		-0.00008293		 0.00003680
O		5.95473957		4.43346015		0.87586768		 0.00027085		 0.00000825		-0.00006775
O		2.52914030		13.40939951		3.50575637		-0.00027085		-0.00000825		 0.00006775
O		7.43813919		13.33721267		3.50864286		 0.00027089		-0.00018450		-0.00006114
O		1.04573970		4.50564895		0.87298119		-0.00027089		 0.00018450		 0.00006114
O		1.04573970		13.45696085		0.51492758		 0.00042486		-0.00023103		-0.00005646
O		7.43813919		4.38589979		3.86669549		-0.00042486		 0.00023103		 0.00005646
O		2.91896987		-0.05962864		1.49073268		-0.00037141		 0.00009687		 0.00007015
O		5.56491000		-0.14451114		3.61276962		 0.00037141		-0.00009687		-0.00007015
O		7.82796876		8.96387108		1.12979258		-0.00041370		 0.00011696		 0.00006668
O		0.65591013		8.87898956		3.25182951		 0.00041370		-0.00011696		-0.00006668
O		0.19753030		2.94184875		3.57135043		 0.00049830		-0.00030004		-0.00008029
O		8.28634957		14.90101091		0.81027265		-0.00049830		 0.00030004		 0.00008029
O		8.28634957		3.03330440		1.28498079		-0.00014548		 0.00025371		 0.00000701
O		0.19753030		14.80955526		3.09664228		 0.00014548		-0.00025371		-0.00000701
O		5.10653018		11.96534946		3.21041130		 0.00028350		-0.00032870		-0.00012669
O		3.37734970		5.87751119		1.17121275		-0.00028350		 0.00032870		 0.00012669
O		3.37734970		12.05680510		0.92404068		 0.00006253		 0.00021281		 0.00005509
O		5.10653018		5.78605554		3.45758239		-0.00006253		-0.00021281		-0.00005509
O		0.12189047		-0.14600053		3.65002599		 0.00020665		-0.00020268		 0.00000957
O		8.36198940		-0.05813925		1.45347828		-0.00020665		 0.00020268		-0.00000957
O		5.03089034		8.87749919		3.28908588		 0.00000976		-0.00019518		-0.00004981
O		3.45298953		8.96536047		1.09253818		-0.00000976		 0.00019518		 0.00004981
O		3.26959224		2.40346107		0.40931928		-0.00041974		 0.00020662		-0.00018117
O		5.21428665		15.43939859		3.97230379		 0.00041974		-0.00020662		 0.00018117
O		5.21428665		2.23982250		4.50028833		 0.00044153		 0.00023695		-0.00025110
O		3.26959224		15.60303716		-0.11866427		-0.00044153		-0.00023695		 0.00025110
O		8.17859310		11.42696177		0.04837918		-0.00048504		 0.00012742		-0.00013547
O		0.30528678		6.41589888		4.33324390		 0.00048504		-0.00012742		 0.00013547
O		0.30528678		11.26332320		4.13934822		 0.00050256		 0.00017205		-0.00031057
O		8.17859310		6.57953744		0.24227583		-0.00050256		-0.00017205		 0.00031057
Ca		-0.66706043		4.90777655		2.35135792		 0.00015929		-0.00000192		-0.00019798
Ca		-0.66706043		12.93508409		2.03026613		-0.00015929		 0.00000192		 0.00019798
Ca		4.24193944		13.93127725		1.99041782		 0.00016954		 0.00004937		-0.00020506
Ca		4.24193944		3.91158339		2.39120624		-0.00016954		-0.00004937		 0.00020506
Mg		0.00000000		0.00000000		0.00000000		0.00000000		0.00000000		0.00000000
Mg		4.90899987		9.02349972		-0.36094011		0.00000000		0.00000000		0.00000000
Mg		0.00000000		3.18709944		-0.12748378		-0.00002523		 0.00001505		 0.00023234
Mg		0.00000000		14.85990098		-0.59439643		 0.00002523		-0.00001505		-0.00023234
Mg		4.90899987		12.21060014		-0.48842389		-0.00002634		 0.00005827		 0.00024975
Mg		4.90899987		5.83640028		-0.23345633		 0.00002634		-0.00005827		-0.00024975
Mg		-0.66706043		1.48245709		2.48837105		 0.00028009		 0.00032554		-0.00019795
Mg		-0.66706043		16.36040355		1.89325300		-0.00028009		-0.00032554		 0.00019795
Mg		4.24193944		10.50595779		2.12743095		 0.00030392		 0.00029165		-0.00020928
Mg		4.24193944		7.33690383		2.25419311		-0.00030392		-0.00029165		 0.00020928
H		0.92650893		-0.15718814		3.92969760		 0.00040471		-0.00014489		 0.00026451
H		7.55736996		-0.04695164		1.17380569		-0.00040471		 0.00014489		-0.00026451
H		5.83550880		8.86631256		3.56875749		 0.00058884		-0.00015294		 0.00031703
H		2.64837009		8.97654808		0.81286558		-0.00058884		 0.00015294		-0.00031703
