# total energy = -44007.3161735 eV

CRYSTAL
PRIMVEC
		9.81799975		0.00000000		0.00000000
		0.00000000		18.04700533		1.44375650
		-1.33411890		0.40828152		5.10350427
PRIMECORD
   82 1
Si		2.35753443		1.63696197		1.63395374		-0.00019288		 0.00000125		-0.00003417
Si		6.12634446		16.81831899		4.91330899		 0.00019288		-0.00000125		 0.00003417
Si		6.12634446		1.80321409		3.71210127		-0.00021502		 0.00014631		-0.00013406
Si		2.35753443		16.65206687		2.83516244		 0.00021502		-0.00014631		 0.00013406
Si		7.26653430		10.66046267		2.35583395		-0.00036400		-0.00007955		-0.00005501
Si		1.21734557		7.79481927		4.19142878		 0.00036400		 0.00007955		 0.00005501
Si		1.21734557		10.82671381		4.43398050		-0.00004778		 0.00010513		-0.00007429
Si		7.26653430		7.62856715		2.11328321		 0.00004778		-0.00010513		 0.00007429
Si		1.76155730		3.41618087		4.35126484		-0.00022296		 0.00001260		 0.00010567
Si		6.72232257		15.03910009		2.19599888		 0.00022296		-0.00001260		-0.00010567
Si		6.72232257		3.16778253		1.24629296		 0.00010846		-0.00005585		-0.00003533
Si		1.76155730		15.28749745		5.30096977		-0.00010846		 0.00005585		 0.00003533
Si		6.67055717		12.43968157		5.07314505		-0.00054620		-0.00023549		 0.00007218
Si		1.81332172		6.01559939		1.47411866		 0.00054620		 0.00023549		-0.00007218
Si		1.81332172		12.19128323		1.96817317		 0.00043392		-0.00031616		-0.00001084
Si		6.67055717		6.26399675		4.57908956		-0.00043392		 0.00031616		 0.00001084
O		2.58846753		2.37880218		3.17398652		-0.00044559		 0.00028292		-0.00014532
O		5.89541038		16.07647976		3.37327719		 0.00044559		-0.00028292		 0.00014532
O		5.89541038		2.30661828		2.27168780		 0.00001564		 0.00006184		 0.00012528
O		2.58846753		16.14866366		4.27557591		-0.00001564		-0.00006184		-0.00012528
O		7.49746838		11.40230190		3.89586674		-0.00041701		 0.00033139		-0.00011581
O		0.98641051		7.05297906		2.65139698		 0.00041701		-0.00033139		 0.00011581
O		0.98641051		11.33011800		2.99356801		0.00000000		 0.00011261		 0.00004720
O		7.49746838		7.12516296		3.55369570		-0.00000000		-0.00011261		-0.00004720
O		0.80703271		1.64068005		1.23213442		-0.00007933		 0.00013828		-0.00003158
O		7.67684716		16.81460091		5.31513027		 0.00007933		-0.00013828		 0.00003158
O		7.67684716		1.87168482		4.11969553		-0.00010467		 0.00057089		-0.00006726
O		0.80703271		16.58359516		2.42756720		 0.00010467		-0.00057089		 0.00006726
O		5.71603258		10.66418075		1.95401365		 0.00001448		 0.00015583		-0.00002183
O		2.76784729		7.79110119		4.59325006		-0.00001448		-0.00015583		 0.00002183
O		2.76784729		10.89518552		4.84157574		-0.00023351		 0.00055802		-0.00008998
O		5.71603258		7.56009544		1.70568699		 0.00023351		-0.00055802		 0.00008998
O		2.52914030		4.79954489		4.40666192		-0.00040843		-0.00019310		 0.00073765
O		5.95473957		13.65573607		2.14060179		 0.00040843		 0.00019310		-0.00073765
O		5.95473957		4.56004755		1.41294663		-0.00014433		-0.00024913		-0.00003853
O		2.52914030		13.89523243		5.13431708		 0.00014433		 0.00024913		 0.00003853
O		7.43813919		13.82304559		5.12854213		-0.00027616		 0.00004232		 0.00074827
O		1.04573970		4.63223635		1.41872158		 0.00027616		-0.00004232		-0.00074827
O		1.04573970		13.58354825		2.13482685		-0.00026746		-0.00000797		-0.00007792
O		7.43813919		4.87173271		4.41243686		 0.00026746		 0.00000797		 0.00007792
O		2.91896987		0.11925924		1.49073268		-0.00000642		 0.00005064		-0.00024098
O		5.56491000		0.28902228		3.61276962		 0.00000642		-0.00005064		 0.00024098
O		7.82796876		9.14275896		2.21261388		 0.00001847		 0.00006765		-0.00021458
O		0.65591013		9.31252200		4.33464983		-0.00001847		-0.00006765		 0.00021458
O		0.19753030		3.38524239		3.94210755		-0.00053881		-0.00034929		 0.00015426
O		8.28634957		15.07003857		2.60515518		 0.00053881		 0.00034929		-0.00015426
O		8.28634957		3.20233207		1.65573890		-0.00001109		-0.00043072		 0.00055144
O		0.19753030		15.25294889		4.89152482		 0.00001109		 0.00043072		-0.00055144
O		5.10653018		12.40874309		4.66398776		-0.00035743		-0.00033099		 0.00019090
O		3.37734970		6.04653885		1.88327497		 0.00035743		 0.00033099		-0.00019090
O		3.37734970		12.22583277		2.37761911		-0.00018224		-0.00040702		 0.00051670
O		5.10653018		6.22944917		4.16964460		 0.00018224		 0.00040702		-0.00051670
O		0.12189047		0.29200204		3.65002599		 0.00027496		 0.00033288		-0.00002618
O		8.36198940		0.11627752		1.45347828		-0.00027496		-0.00033288		 0.00002618
O		5.03089034		9.31550274		4.37190620		 0.00005681		 0.00031604		-0.00006441
O		3.45298953		9.13977920		2.17535751		-0.00005681		-0.00031604		 0.00006441
O		3.26959224		2.46421387		0.70016476		-0.00030779		 0.00032212		 0.00011429
O		5.21428665		15.99106807		5.84709895		 0.00030779		-0.00032212		-0.00011429
O		5.21428665		2.79149100		4.79113282		 0.00018630		 0.00022720		-0.00007101
O		3.26959224		15.66378996		1.75613089		-0.00018630		-0.00022720		 0.00007101
O		8.17859310		11.48771359		1.42204497		-0.00026147		 0.00037878		 0.00005142
O		0.30528678		6.96756639		5.12521874		 0.00026147		-0.00037878		-0.00005142
O		0.30528678		11.81499072		5.51301304		 0.00013348		 0.00026737		-0.00002250
O		8.17859310		6.64029024		1.03425067		-0.00013348		-0.00026737		 0.00002250
Ca		-0.66706043		5.21398720		2.95253957		-0.00039869		-0.00009970		 0.00053003
Ca		-0.66706043		13.24129376		3.59472414		 0.00039869		 0.00009970		-0.00053003
Ca		4.24193944		14.23748790		3.67441979		-0.00038872		-0.00016323		 0.00056941
Ca		4.24193944		4.21779306		2.87284392		 0.00038872		 0.00016323		-0.00056941
Mg		0.00000000		0.00000000		0.00000000		0.00000000		0.00000000		0.00000000
Mg		4.90899987		9.02349972		0.72188021		0.00000000		0.00000000		0.00000000
Mg		0.00000000		3.18709944		0.25496756		 0.00034080		-0.00027729		-0.00036088
Mg		0.00000000		14.85990098		1.18879188		-0.00034080		 0.00027729		 0.00036088
Mg		4.90899987		12.21060014		0.97684778		 0.00036852		-0.00029855		-0.00031463
Mg		4.90899987		5.83640028		0.46691167		-0.00036852		 0.00029855		 0.00031463
Mg		-0.66706043		1.78866676		2.67851429		-0.00046840		 0.00008667		 0.00040443
Mg		-0.66706043		16.66661322		3.86874942		 0.00046840		-0.00008667		-0.00040443
Mg		4.24193944		10.81216746		3.40039352		-0.00046188		 0.00005763		 0.00041694
Mg		4.24193944		7.64311350		3.14687019		 0.00046188		-0.00005763		-0.00041694
H		0.92650893		0.31437628		3.92969760		 0.00017467		 0.00035368		 0.00022402
H		7.55736996		0.09390426		1.17380569		-0.00017467		-0.00035368		-0.00022402
H		5.83550880		9.33787600		4.65157781		 0.00038959		 0.00037170		 0.00027570
H		2.64837009		9.11740496		1.89568590		-0.00038959		-0.00037170		-0.00027570
