# total energy = -41274.8180103 eV

CRYSTAL
PRIMVEC
		5.82435177		0.00000000		0.00000000
		0.00000000		11.67802699		0.00000000
		0.00000000		0.00000000		8.50921393
PRIMECORD
   56 1
Mg		0.00000000		0.00000000		0.00000000		-0.00000000		-0.00000007		-0.00000002
Mg		0.00000000		5.83901350		0.00000000		-0.00000000		 0.00000006		-0.00000002
Mg		2.91217532		5.83901350		4.25460868		0.00000000		 0.00000002		-0.00000004
Mg		2.91217532		0.00000000		4.25460868		 0.00000001		-0.00000000		-0.00000001
Mg		0.00000000		2.91950675		8.25191405		 0.00000005		-0.00000001		-0.00024861
Mg		0.00000000		8.75852024		0.25730273		 0.00000002		-0.00000002		 0.00024860
Mg		2.91217532		8.75852024		3.99730537		-0.00000001		-0.00000001		-0.00024881
Mg		2.91217532		2.91950675		4.51191141		-0.00000004		 0.00000003		 0.00024852
Mg		1.45608766		1.48925404		2.12730405		 0.00000004		 0.00011975		 0.00000002
Mg		4.36826297		10.18877238		6.38191273		 0.00000001		-0.00011982		 0.00000002
Mg		4.36826297		4.34975888		2.12730462		-0.00000006		-0.00011972		 0.00000003
Mg		1.45608766		7.32826754		6.38191273		-0.00000001		 0.00011979		-0.00000001
Mg		4.36826297		7.32826754		6.38191273		 0.00000001		 0.00011984		-0.00000001
Mg		1.45608766		4.34975888		2.12730405		 0.00000004		-0.00011971		 0.00000003
Mg		1.45608766		10.18877238		6.38191273		-0.00000001		-0.00011979		 0.00000002
Mg		4.36826297		1.48925461		2.12730462		-0.00000004		 0.00011971		 0.00000001
Si		0.00000000		1.40300629		5.24188354		 0.00000001		-0.00047015		-0.00035677
Si		0.00000000		10.27502014		3.26733324		 0.00000008		 0.00047009		 0.00035681
Si		0.00000000		4.43600721		5.24188354		 0.00000001		 0.00047011		-0.00035684
Si		0.00000000		7.24201978		3.26733324		 0.00000003		-0.00047009		 0.00035682
Si		2.91217532		7.24201978		0.98727544		-0.00000001		-0.00046991		-0.00035654
Si		2.91217532		4.43600664		7.52194192		-0.00000002		 0.00047024		 0.00035666
Si		2.91217532		10.27502014		0.98727544		-0.00000006		 0.00046988		-0.00035663
Si		2.91217532		1.40300629		7.52194135		-0.00000002		-0.00047022		 0.00035673
O		0.00000000		2.91950675		1.82067798		0.00000000		 0.00000005		 0.00012005
O		0.00000000		8.75852024		6.68853881		-0.00000003		-0.00000007		-0.00011977
O		2.91217532		8.75851967		6.07528608		 0.00000001		-0.00000006		 0.00012008
O		2.91217532		2.91950675		2.43393070		-0.00000002		-0.00000002		-0.00012004
O		0.00000000		2.91950675		6.07416181		 0.00000007		 0.00000005		-0.00011781
O		0.00000000		8.75852024		2.43505497		-0.00000003		-0.00000007		 0.00011741
O		2.91217532		8.75852024		1.81955313		 0.00000002		-0.00000003		-0.00011761
O		2.91217532		2.91950675		6.68966365		-0.00000008		 0.00000004		 0.00011752
O		0.00000000		11.54663959		2.18838527		-0.00000006		 0.00029177		 0.00031886
O		0.00000000		0.13138684		6.32083152		-0.00000001		-0.00029163		-0.00031876
O		0.00000000		5.97040033		2.18838527		-0.00000002		-0.00029181		 0.00031890
O		0.00000000		5.70762609		6.32083152		-0.00000005		 0.00029168		-0.00031871
O		2.91217532		5.70762609		6.44299394		 0.00000003		 0.00029163		 0.00031898
O		2.91217532		5.97040033		2.06622341		 0.00000002		-0.00029170		-0.00031894
O		2.91217532		0.13138741		6.44299394		 0.00000006		-0.00029157		 0.00031887
O		2.91217532		11.54663959		2.06622341		 0.00000004		 0.00029170		-0.00031893
O		1.52783153		1.43277249		8.43974026		 0.00014209		-0.00033602		 0.00038977
O		4.29651853		10.24525393		0.06947652		-0.00014206		 0.00033611		-0.00038978
O		4.29651853		4.40624043		8.43974083		-0.00014206		 0.00033606		 0.00038979
O		1.52783153		7.27178599		0.06947652		 0.00014205		-0.00033608		-0.00038979
O		4.29651853		7.27178599		0.06947652		-0.00014200		-0.00033611		-0.00038983
O		1.52783153		4.40624043		8.43974026		 0.00014198		 0.00033610		 0.00038978
O		1.52783153		10.24525393		0.06947652		 0.00014202		 0.00033609		-0.00038978
O		4.29651853		1.43277249		8.43974083		-0.00014203		-0.00033600		 0.00038981
O		4.44000685		7.27178599		4.18513216		 0.00014211		-0.00033604		 0.00038976
O		1.38434322		4.40624043		4.32408463		-0.00014207		 0.00033596		-0.00038974
O		1.38434322		10.24525393		4.18513216		-0.00014214		 0.00033604		 0.00038973
O		4.44000685		1.43277306		4.32408463		 0.00014207		-0.00033597		-0.00038982
O		1.38434322		1.43277249		4.32408463		-0.00014203		-0.00033601		-0.00038978
O		4.44000685		10.24525393		4.18513216		 0.00014212		 0.00033608		 0.00038978
O		4.44000685		4.40624043		4.32408463		 0.00014213		 0.00033589		-0.00038974
O		1.38434322		7.27178599		4.18513216		-0.00014214		-0.00033605		 0.00038976
