# total energy = -41274.1263831 eV

CRYSTAL
PRIMVEC
		5.85741900		0.00000000		0.00000000
		0.00000000		11.74485665		0.00000000
		0.00000000		0.00000000		8.59647770
PRIMECORD
   56 1
Mg		0.00000000		0.00000000		0.00000000		 0.00000002		 0.00000001		0.00000000
Mg		0.00000000		5.87242719		0.00000000		 0.00000004		-0.00000000		 0.00000002
Mg		2.92870893		5.87242719		4.29823828		-0.00000005		-0.00000002		 0.00000002
Mg		2.92870836		0.00000000		4.29823828		-0.00000002		 0.00000001		 0.00000003
Mg		0.00000000		2.93621359		8.33372568		 0.00000003		-0.00000000		-0.00027614
Mg		0.00000000		8.80864078		0.26275088		0.00000000		-0.00000001		 0.00027617
Mg		2.92870836		8.80864078		4.03548740		-0.00000001		-0.00000002		-0.00027614
Mg		2.92870893		2.93621359		4.56098916		-0.00000004		 0.00000002		 0.00027609
Mg		1.46435418		1.49635583		2.14911885		-0.00000003		 0.00006251		 0.00000002
Mg		4.39306254		10.24849854		6.44735770		 0.00000002		-0.00006245		 0.00000001
Mg		4.39306254		4.37607135		2.14911885		 0.00000003		-0.00006251		 0.00000001
Mg		1.46435418		7.36878302		6.44735770		-0.00000003		 0.00006245		 0.00000001
Mg		4.39306254		7.36878302		6.44735770		 0.00000002		 0.00006246		 0.00000001
Mg		1.46435418		4.37607135		2.14911885		-0.00000002		-0.00006252		 0.00000001
Mg		1.46435418		10.24849854		6.44735770		-0.00000002		-0.00006244		0.00000000
Mg		4.39306254		1.49635583		2.14911942		 0.00000003		 0.00006250		 0.00000001
Si		0.00000000		1.41265123		5.29292549		 0.00000001		-0.00070006		-0.00045186
Si		0.00000000		10.33220314		3.30355163		-0.00000001		 0.00070002		 0.00045187
Si		0.00000000		4.45977596		5.29292549		0.00000000		 0.00070013		-0.00045181
Si		0.00000000		7.28507841		3.30355163		-0.00000004		-0.00070009		 0.00045184
Si		2.92870836		7.28507841		0.99468722		 0.00000003		-0.00070003		-0.00045188
Si		2.92870836		4.45977596		7.60178991		-0.00000000		 0.00070017		 0.00045177
Si		2.92870836		10.33220314		0.99468722		 0.00000005		 0.00069997		-0.00045188
Si		2.92870836		1.41265123		7.60178991		-0.00000002		-0.00070012		 0.00045178
O		0.00000000		2.93621359		1.82842539		 0.00000001		-0.00000001		 0.00041967
O		0.00000000		8.80864078		6.76805117		0.00000000		 0.00000005		-0.00041961
O		2.92870836		8.80864078		6.12666366		-0.00000003		 0.00000002		 0.00041962
O		2.92870836		2.93621359		2.46981289		-0.00000002		0.00000000		-0.00041952
O		0.00000000		2.93621359		6.12267770		 0.00000004		-0.00000002		-0.00010722
O		0.00000000		8.80864078		2.47379885		-0.00000002		 0.00000002		 0.00010709
O		2.92870836		8.80864078		1.82443943		 0.00000001		 0.00000005		-0.00010717
O		2.92870836		2.93621359		6.77203713		-0.00000004		-0.00000005		 0.00010709
O		0.00000000		11.60553493		2.21823980		0.00000000		 0.00065260		 0.00061899
O		0.00000000		0.13931944		6.37823676		0.00000000		-0.00065254		-0.00061907
O		0.00000000		6.01174719		2.21823980		-0.00000001		-0.00065260		 0.00061900
O		0.00000000		5.73310718		6.37823676		 0.00000003		 0.00065254		-0.00061911
O		2.92870836		5.73310775		6.51647808		-0.00000002		 0.00065257		 0.00061898
O		2.92870836		6.01174719		2.07999848		-0.00000001		-0.00065260		-0.00061896
O		2.92870836		0.13932001		6.51647808		0.00000000		-0.00065261		 0.00061898
O		2.92870836		11.60553493		2.07999848		-0.00000001		 0.00065259		-0.00061894
O		1.53948455		1.44021732		8.52248129		 0.00009287		-0.00048405		 0.00050342
O		4.31793217		10.30463762		0.07399584		-0.00009289		 0.00048397		-0.00050341
O		4.31793217		4.43220986		8.52248129		-0.00009286		 0.00048410		 0.00050347
O		1.53948455		7.31264451		0.07399584		 0.00009290		-0.00048402		-0.00050340
O		4.31793217		7.31264451		0.07399584		-0.00009287		-0.00048399		-0.00050343
O		1.53948455		4.43220986		8.52248129		 0.00009284		 0.00048405		 0.00050345
O		1.53948455		10.30463705		0.07399584		 0.00009288		 0.00048403		-0.00050341
O		4.31793217		1.44021732		8.52248129		-0.00009280		-0.00048409		 0.00050343
O		4.46819349		7.31264451		4.22424301		 0.00009280		-0.00048406		 0.00050348
O		1.38922381		4.43220986		4.37223412		-0.00009281		 0.00048406		-0.00050342
O		1.38922381		10.30463705		4.22424301		-0.00009286		 0.00048406		 0.00050347
O		4.46819349		1.44021732		4.37223355		 0.00009287		-0.00048410		-0.00050344
O		1.38922381		1.44021732		4.37223355		-0.00009287		-0.00048407		-0.00050342
O		4.46819349		10.30463705		4.22424301		 0.00009287		 0.00048404		 0.00050344
O		4.46819349		4.43220986		4.37223355		 0.00009281		 0.00048406		-0.00050346
O		1.38922381		7.31264451		4.22424301		-0.00009284		-0.00048403		 0.00050347
