# total energy = -41275.3180972 eV

CRYSTAL
PRIMVEC
		5.68884051		0.00000000		0.00000000
		0.00000000		11.40414392		0.00000000
		0.00000000		0.00000000		8.20818986
PRIMECORD
   56 1
Mg		0.00000000		0.00000000		0.00000000		 0.00000001		 0.00000009		0.00000000
Mg		0.00000000		5.70207082		0.00000000		 0.00000002		-0.00000008		 0.00000002
Mg		2.84441911		5.70207082		4.10409493		 0.00000002		-0.00000005		-0.00000004
Mg		2.84441911		0.00000000		4.10409436		-0.00000000		 0.00000007		-0.00000003
Mg		0.00000000		2.85103541		7.97329341		 0.00000003		 0.00000001		 0.00071778
Mg		0.00000000		8.55310623		0.23489588		 0.00000001		-0.00000000		-0.00071780
Mg		2.84441911		8.55310623		3.86919905		 0.00000001		-0.00000000		 0.00071777
Mg		2.84441911		2.85103541		4.33899024		-0.00000003		0.00000000		-0.00071787
Mg		1.42220956		1.45762848		2.05204775		 0.00000001		-0.00048655		-0.00000007
Mg		4.26662867		9.94651316		6.15614154		-0.00000001		 0.00048664		 0.00000004
Mg		4.26662867		4.24444234		2.05204775		-0.00000002		 0.00048655		-0.00000009
Mg		1.42220956		7.15969930		6.15614154		0.00000000		-0.00048667		 0.00000004
Mg		4.26662867		7.15969930		6.15614154		0.00000000		-0.00048663		 0.00000003
Mg		1.42220956		4.24444234		2.05204775		 0.00000002		 0.00048654		-0.00000008
Mg		1.42220956		9.94651316		6.15614154		 0.00000001		 0.00048666		 0.00000002
Mg		4.26662867		1.45762848		2.05204775		-0.00000002		-0.00048656		-0.00000009
Si		0.00000000		1.36530235		5.06457297		 0.00000002		 0.00020144		-0.00003484
Si		0.00000000		10.03883929		3.14361632		-0.00000002		-0.00020126		 0.00003481
Si		0.00000000		4.33676847		5.06457297		-0.00000001		-0.00020145		-0.00003483
Si		0.00000000		7.06737317		3.14361632		0.00000000		 0.00020129		 0.00003479
Si		2.84441911		7.06737317		0.96047861		 0.00000004		 0.00020125		-0.00003482
Si		2.84441911		4.33676847		7.24771067		 0.00000002		-0.00020140		 0.00003492
Si		2.84441911		10.03883929		0.96047861		 0.00000002		-0.00020125		-0.00003482
Si		2.84441911		1.36530235		7.24771067		-0.00000002		 0.00020137		 0.00003489
O		0.00000000		2.85103541		1.79589835		 0.00000001		-0.00000009		 0.00003468
O		0.00000000		8.55310623		6.41229094		-0.00000000		 0.00000009		-0.00003452
O		2.84441911		8.55310623		5.89999271		-0.00000003		 0.00000003		 0.00003452
O		2.84441911		2.85103541		2.30819658		 0.00000005		-0.00000005		-0.00003445
O		0.00000000		2.85103541		5.90220365		 0.00000007		-0.00000003		 0.00014823
O		0.00000000		8.55310623		2.30598564		-0.00000004		-0.00000006		-0.00014817
O		2.84441911		8.55310623		1.79810872		 0.00000003		 0.00000002		 0.00014829
O		2.84441911		2.85103541		6.41008057		-0.00000009		-0.00000001		-0.00014833
O		0.00000000		11.30063202		2.08928557		 0.00000003		-0.00021404		 0.00002538
O		0.00000000		0.10350961		6.11890372		-0.00000001		 0.00021394		-0.00002534
O		0.00000000		5.80558043		2.08928557		 0.00000007		 0.00021404		 0.00002535
O		0.00000000		5.59856120		6.11890372		-0.00000001		-0.00021390		-0.00002536
O		2.84441911		5.59856120		6.19337993		 0.00000003		-0.00021383		 0.00002522
O		2.84441911		5.80558100		2.01480936		-0.00000003		 0.00021394		-0.00002521
O		2.84441911		0.10350961		6.19337993		 0.00000002		 0.00021390		 0.00002522
O		2.84441911		11.30063202		2.01480936		-0.00000006		-0.00021395		-0.00002525
O		1.48023363		1.40258119		8.15351524		-0.00025513		-0.00002729		-0.00039291
O		4.20860402		10.00156044		0.05467405		 0.00025513		 0.00002723		 0.00039287
O		4.20860402		4.29948962		8.15351524		 0.00025509		 0.00002726		-0.00039290
O		1.48023363		7.10465201		0.05467405		-0.00025507		-0.00002721		 0.00039287
O		4.20860402		7.10465201		0.05467405		 0.00025509		-0.00002719		 0.00039293
O		1.48023363		4.29948962		8.15351524		-0.00025508		 0.00002725		-0.00039292
O		1.48023363		10.00156044		0.05467405		-0.00025508		 0.00002722		 0.00039286
O		4.20860402		1.40258119		8.15351524		 0.00025512		-0.00002726		-0.00039286
O		4.32465332		7.10465201		4.04942088		-0.00025508		-0.00002722		-0.00039286
O		1.36418491		4.29948962		4.15876840		 0.00025507		 0.00002729		 0.00039294
O		1.36418491		10.00156044		4.04942088		 0.00025505		 0.00002720		-0.00039290
O		4.32465332		1.40258119		4.15876840		-0.00025512		-0.00002727		 0.00039287
O		1.36418491		1.40258119		4.15876840		 0.00025510		-0.00002726		 0.00039290
O		4.32465332		10.00156044		4.04942088		-0.00025508		 0.00002719		-0.00039291
O		4.32465332		4.29948962		4.15876840		-0.00025507		 0.00002728		 0.00039291
O		1.36418548		7.10465201		4.04942088		 0.00025495		-0.00002723		-0.00039291
