# total energy = -41264.2305875 eV	

CRYSTAL	
PRIMVEC	
		5.69830055		0.00000000		-0.68379469	
		0.00000000		11.43799782		0.00000000	
		-0.99078921		0.00000000		8.25659776	
PRIMCOORD
   56 1	
Mg		0.00000000		0.00000000		0.00000000		0.00000000		0.00000000		0.00000000	
Mg		0.00000000		5.71899948		0.00000000		0.00000000		0.00000000		0.00000000	
Mg		2.35375395		5.71899948		3.78640154		0.00000000		0.00000000		0.00000000	
Mg		2.35375395		0.00000000		3.78640154		0.00000000		0.00000000		0.00000000	
Mg		-0.96116700		2.85949974		8.00972748		-0.00023600		-0.00000000		 0.00028205	
Mg		-0.02962508		8.57849923		0.24687201		 0.00023600		0.00000000		-0.00028205	
Mg		2.38337903		8.57849923		3.53952953		-0.00023600		0.00000000		 0.00028205	
Mg		2.32412888		2.85949974		4.03327469		 0.00023600		-0.00000000		-0.00028205	
Mg		1.17687698		1.45948916		1.89320077		0.00000000		-0.00063205		0.00000000	
Mg		3.53063093		9.97851038		5.67960288		-0.00000000		 0.00063205		-0.00000000	
Mg		4.02602668		4.25951090		1.55130285		0.00000000		-0.00039573		0.00000000	
Mg		0.68148123		7.17848864		6.02150080		-0.00000000		 0.00039573		-0.00000000	
Mg		3.53063093		7.17848864		5.67960288		-0.00000000		-0.00063205		-0.00000000	
Mg		1.17687698		4.25951090		1.89320077		0.00000000		 0.00063205		0.00000000	
Mg		0.68148123		9.97851038		6.02150080		-0.00000000		-0.00039574		0.00000000	
Mg		4.02602668		1.45948916		1.55130285		0.00000000		 0.00039574		-0.00000000	
Si		-0.61112117		1.37027187		5.09267064		 0.00017084		 0.00013655		 0.00014866	
Si		-0.37967206		10.06772710		3.16392885		-0.00017084		-0.00013655		-0.00014866	
Si		-0.61112117		4.34872646		5.09267064		 0.00017084		-0.00013655		 0.00014866	
Si		-0.37967206		7.08927136		3.16392885		-0.00017084		 0.00013655		-0.00014866	
Si		2.73342486		7.08927136		0.62247269		 0.00017084		 0.00013655		 0.00014867	
Si		1.97408189		4.34872646		6.95033038		-0.00017084		-0.00013655		-0.00014867	
Si		2.73342486		10.06772710		0.62247269		 0.00017084		-0.00013655		 0.00014867	
Si		1.97408189		1.37027187		6.95033038		-0.00017084		 0.00013655		-0.00014867	
O		-0.21460576		2.85949974		1.78837980		 0.00033325		0.00000000		 0.00007164	
O		-0.77618574		8.57849923		6.46822083		-0.00033325		-0.00000000		-0.00007164	
O		2.13914762		8.57849923		5.57478191		 0.00033325		0.00000000		 0.00007165	
O		2.56835856		2.85949974		1.99802289		-0.00033325		-0.00000000		-0.00007165	
O		-0.70980293		2.85949974		5.91502866		 0.00050306		-0.00000000		 0.00042638	
O		-0.28098914		8.57849923		2.34157197		-0.00050306		0.00000000		-0.00042638	
O		2.63474309		8.57849923		1.44483072		 0.00050306		-0.00000000		 0.00042638	
O		2.07276481		2.85949974		6.12797350		-0.00050306		0.00000000		-0.00042638	
O		-0.25344509		11.32361939		2.11203803		 0.00044924		-0.00026675		-0.00020681	
O		-0.73734698		0.11438015		6.14456146		-0.00044924		 0.00026675		 0.00020681	
O		-0.25344509		5.83337963		2.11203803		 0.00044923		 0.00026675		-0.00020682	
O		-0.73734698		5.60461991		6.14456146		-0.00044923		-0.00026675		 0.00020682	
O		2.10030886		5.60461991		5.89844071		 0.00044923		-0.00026675		-0.00020681	
O		2.60719904		5.83337963		1.67436408		-0.00044923		 0.00026675		 0.00020681	
O		2.10030886		0.11438015		5.89844071		 0.00044923		 0.00026675		-0.00020681	
O		2.60719904		11.32361939		1.67436408		-0.00044923		-0.00026675		 0.00020681	
O		0.50674383		1.40115498		8.01586266		 0.00021617		 0.00030228		 0.00023583	
O		4.20076350		10.03684456		-0.44305901		-0.00021617		-0.00030228		-0.00023583	
O		3.22483303		4.31784451		7.68969239		 0.00054900		-0.00010109		 0.00000996	
O		1.48267373		7.12015446		-0.11688817		-0.00054900		 0.00010109		-0.00000996	
O		4.20076350		7.12015446		-0.44305901		-0.00021617		 0.00030228		-0.00023583	
O		0.50674383		4.31784451		8.01586266		 0.00021617		-0.00030228		 0.00023583	
O		1.48267373		10.03684456		-0.11688817		-0.00054900		-0.00010109		-0.00000996	
O		3.22483303		1.40115498		7.68969239		 0.00054900		 0.00010109		 0.00000996	
O		3.85128986		7.12015446		3.54566471		 0.00021617		 0.00030228		 0.00023584	
O		0.85621804		4.31784451		4.02713893		-0.00021617		-0.00030228		-0.00023584	
O		0.87107908		10.03684456		3.90328971		 0.00054900		-0.00010108		 0.00000995	
O		3.83642768		1.40115498		3.66951394		-0.00054900		 0.00010108		-0.00000995	
O		0.85621804		1.40115498		4.02713893		-0.00021617		 0.00030228		-0.00023583	
O		3.85128986		10.03684456		3.54566471		 0.00021617		-0.00030228		 0.00023583	
O		3.83642768		4.31784451		3.66951394		-0.00054899		-0.00010109		-0.00000996	
O		0.87107908		7.12015446		3.90328971		 0.00054899		 0.00010109		 0.00000996	
