# total energy = -41274.2034706 eV	

CRYSTAL	
PRIMVEC	
		5.69830037		0.00000000		-0.22793179	
		0.00000000		11.43799779		0.00000000	
		-0.33026385		0.00000000		8.25660201	
PRIMCOORD
   56 1	
Mg		0.00000000		0.00000000		0.00000000		0.00000000		0.00000000		0.00000000	
Mg		0.00000000		5.71900003		0.00000000		0.00000000		0.00000000		0.00000000	
Mg		2.68401826		5.71900003		4.01433397		0.00000000		0.00000000		0.00000000	
Mg		2.68401826		0.00000000		4.01433397		0.00000000		0.00000000		0.00000000	
Mg		-0.32038879		2.85950030		8.00972818		-0.00010619		-0.00000000		 0.00074163	
Mg		-0.00987507		8.57850034		0.24687212		 0.00010619		0.00000000		-0.00074163	
Mg		2.69389333		8.57850034		3.76746185		-0.00010619		-0.00000000		 0.00074164	
Mg		2.67414319		2.85950030		4.26120723		 0.00010619		0.00000000		-0.00074164	
Mg		1.34200885		1.45948884		2.00716727		-0.00000001		-0.00027355		0.00000000	
Mg		4.02602711		9.97851123		6.02150124		 0.00000001		 0.00027355		-0.00000000	
Mg		4.19115903		4.25951120		1.89320081		-0.00000000		-0.00046762		 0.00000001	
Mg		1.17687692		7.17848944		6.13546713		0.00000000		 0.00046762		-0.00000001	
Mg		4.02602711		7.17848944		6.02150124		-0.00000000		-0.00027355		-0.00000001	
Mg		1.34200885		4.25951120		2.00716727		0.00000000		 0.00027355		 0.00000001	
Mg		1.17687692		9.97851123		6.13546713		-0.00000001		-0.00046763		-0.00000000	
Mg		4.19115903		1.45948884		1.89320081		 0.00000001		 0.00046763		0.00000000	
Si		-0.20370719		1.37027220		5.09267122		 0.00076364		 0.00025441		 0.00035699	
Si		-0.12655723		10.06772844		3.16392907		-0.00076364		-0.00025441		-0.00035699	
Si		-0.20370719		4.34872726		5.09267122		 0.00076371		-0.00025437		 0.00035703	
Si		-0.12655723		7.08927224		3.16392907		-0.00076371		 0.00025437		-0.00035703	
Si		2.81057492		7.08927224		0.85040490		 0.00076374		 0.00025438		 0.00035704	
Si		2.55746103		4.34872726		7.17826304		-0.00076374		-0.00025438		-0.00035704	
Si		2.81057492		10.06772844		0.85040490		 0.00076370		-0.00025442		 0.00035701	
Si		2.55746103		1.37027220		7.17826304		-0.00076370		 0.00025442		-0.00035701	
O		-0.07153493		2.85950030		1.78838001		-0.00031182		 0.00000002		 0.00086932	
O		-0.25872893		8.57850034		6.46822142		 0.00031182		-0.00000002		-0.00086932	
O		2.61248333		8.57850034		5.80271398		-0.00031180		 0.00000002		 0.00086932	
O		2.75555319		2.85950030		2.22595510		 0.00031180		-0.00000002		-0.00086932	
O		-0.23660127		2.85950030		5.91502890		 0.00011972		-0.00000001		 0.00044565	
O		-0.09366315		8.57850034		2.34157197		-0.00011972		 0.00000001		-0.00044565	
O		2.77768084		8.57850034		1.67276314		 0.00011971		0.00000000		 0.00044566	
O		2.59035511		2.85950030		6.35590594		-0.00011971		-0.00000000		-0.00044566	
O		-0.08448212		11.32362015		2.11203825		 0.00035688		 0.00001134		 0.00019319	
O		-0.24578173		0.11437992		6.14456205		-0.00035688		-0.00001134		-0.00019319	
O		-0.08448212		5.83337996		2.11203825		 0.00035688		-0.00001132		 0.00019321	
O		-0.24578173		5.60462011		6.14456205		-0.00035688		 0.00001132		-0.00019321	
O		2.59953614		5.60462011		6.12637336		 0.00035685		 0.00001132		 0.00019319	
O		2.76849924		5.83337996		1.90229629		-0.00035685		-0.00001132		-0.00019319	
O		2.59953614		0.11437992		6.12637336		 0.00035685		-0.00001131		 0.00019319	
O		2.76849924		11.32362015		1.90229629		-0.00035685		 0.00001131		-0.00019319	
O		1.16231810		1.40115489		8.13507241		-0.00030671		 0.00022751		 0.00023748	
O		4.20571729		10.03684518		-0.10640276		 0.00030671		-0.00022751		-0.00023748	
O		3.88040694		4.31784515		8.02634802		-0.00009402		-0.00032544		-0.00035384	
O		1.48762788		7.12015492		0.00231992		 0.00009402		 0.00032544		 0.00035384	
O		4.20571729		7.12015492		-0.10640276		 0.00030671		 0.00022752		-0.00023745	
O		1.16231810		4.31784515		8.13507241		-0.00030671		-0.00022752		 0.00023745	
O		1.48762788		10.03684518		0.00231992		 0.00009406		-0.00032542		 0.00035387	
O		3.88040694		1.40115489		8.02634802		-0.00009406		 0.00032542		-0.00035387	
O		4.17660021		7.12015492		3.89280609		-0.00030670		 0.00022751		 0.00023748	
O		1.19143631		4.31784515		4.13586299		 0.00030670		-0.00022751		-0.00023748	
O		1.19638924		10.03684518		4.01201405		-0.00009407		-0.00032545		-0.00035390	
O		4.17164614		1.40115489		4.01665389		 0.00009407		 0.00032545		 0.00035390	
O		1.19143631		1.40115489		4.13586299		 0.00030673		 0.00022754		-0.00023748	
O		4.17660021		10.03684518		3.89280609		-0.00030673		-0.00022754		 0.00023748	
O		4.17164614		4.31784515		4.01665389		 0.00009403		-0.00032546		 0.00035382	
O		1.19638924		7.12015492		4.01201405		-0.00009403		 0.00032546		-0.00035382	
