# total energy = -41264.2305875 eV	

CRYSTAL	
PRIMVEC	
		5.69830055		0.00000000		0.68379469	
		0.00000000		11.43799782		0.00000000	
		0.99078921		0.00000000		8.25659776	
PRIMCOORD
   56 1	
Mg		0.00000000		0.00000000		0.00000000		0.00000000		0.00000000		0.00000000	
Mg		0.00000000		5.71899948		0.00000000		0.00000000		0.00000000		0.00000000	
Mg		3.34454603		5.71899948		4.47019795		0.00000000		0.00000000		0.00000000	
Mg		3.34454603		0.00000000		4.47019795		0.00000000		0.00000000		0.00000000	
Mg		0.96116700		2.85949974		8.00972748		 0.00023600		-0.00000000		 0.00028203	
Mg		0.02962508		8.57849923		0.24687201		-0.00023600		0.00000000		-0.00028203	
Mg		3.31492095		8.57849923		4.22332594		 0.00023601		0.00000000		 0.00028204	
Mg		3.37417053		2.85949974		4.71707053		-0.00023601		-0.00000000		-0.00028204	
Mg		1.67227273		1.45948916		2.23509869		-0.00000000		 0.00039573		0.00000000	
Mg		5.01681876		9.97851038		6.70529663		0.00000000		-0.00039573		-0.00000000	
Mg		4.52142243		4.25951090		2.57699660		0.00000000		 0.00063206		0.00000000	
Mg		2.16766905		7.17848864		6.36339871		-0.00000000		-0.00063206		-0.00000000	
Mg		5.01681876		7.17848864		6.70529663		0.00000000		 0.00039573		0.00000000	
Mg		1.67227273		4.25951090		2.23509869		-0.00000000		-0.00039573		-0.00000000	
Mg		2.16766905		9.97851038		6.36339871		-0.00000000		 0.00063206		-0.00000000	
Mg		4.52142243		1.45948916		2.57699660		0.00000000		-0.00063206		0.00000000	
Si		0.61112117		1.37027187		5.09267064		-0.00017084		 0.00013655		 0.00014867	
Si		0.37967206		10.06772710		3.16392885		 0.00017084		-0.00013655		-0.00014867	
Si		0.61112117		4.34872646		5.09267064		-0.00017084		-0.00013655		 0.00014867	
Si		0.37967206		7.08927136		3.16392885		 0.00017084		 0.00013655		-0.00014867	
Si		2.96487397		7.08927136		1.30626910		-0.00017084		 0.00013656		 0.00014867	
Si		3.72421694		4.34872646		7.63412622		 0.00017084		-0.00013656		-0.00014867	
Si		2.96487397		10.06772710		1.30626910		-0.00017084		-0.00013655		 0.00014867	
Si		3.72421694		1.37027187		7.63412622		 0.00017084		 0.00013655		-0.00014867	
O		0.21460576		2.85949974		1.78837980		-0.00033325		0.00000000		 0.00007165	
O		0.77618574		8.57849923		6.46822083		 0.00033325		-0.00000000		-0.00007165	
O		3.55915179		8.57849923		6.25857774		-0.00033325		0.00000000		 0.00007165	
O		3.12993969		2.85949974		2.68181872		 0.00033325		-0.00000000		-0.00007165	
O		0.70980293		2.85949974		5.91502866		-0.00050306		-0.00000000		 0.00042639	
O		0.28098914		8.57849923		2.34157197		 0.00050306		0.00000000		-0.00042639	
O		3.06355689		8.57849923		2.12862713		-0.00050306		0.00000000		 0.00042639	
O		3.62553460		2.85949974		6.81176934		 0.00050306		-0.00000000		-0.00042639	
O		0.25344509		11.32361939		2.11203803		-0.00044922		-0.00026675		-0.00020681	
O		0.73734698		0.11438015		6.14456146		 0.00044922		 0.00026675		 0.00020681	
O		0.25344509		5.83337963		2.11203803		-0.00044922		 0.00026675		-0.00020682	
O		0.73734698		5.60461991		6.14456146		 0.00044922		-0.00026675		 0.00020682	
O		3.59799055		5.60461991		6.58223655		-0.00044923		-0.00026676		-0.00020682	
O		3.09110094		5.83337963		2.35815992		 0.00044923		 0.00026676		 0.00020682	
O		3.59799055		0.11438015		6.58223655		-0.00044923		 0.00026676		-0.00020682	
O		3.09110094		11.32361939		2.35815992		 0.00044923		-0.00026676		 0.00020682	
O		2.47346695		1.40115498		8.37348823		-0.00054900		 0.00010109		 0.00000996	
O		4.21562453		10.03684456		0.56690824		 0.00054900		-0.00010109		-0.00000996	
O		5.19155557		4.31784451		8.69965850		-0.00021617		-0.00030228		 0.00023583	
O		1.49753591		7.12015446		0.24073682		 0.00021617		 0.00030228		-0.00023583	
O		4.21562453		7.12015446		0.56690824		 0.00054901		 0.00010109		-0.00000996	
O		2.47346695		4.31784451		8.37348823		-0.00054901		-0.00010109		 0.00000996	
O		1.49753591		10.03684456		0.24073682		 0.00021617		-0.00030228		-0.00023583	
O		5.19155557		1.40115498		8.69965850		-0.00021617		 0.00030228		 0.00023583	
O		4.82721975		7.12015446		4.58708555		-0.00054900		 0.00010109		 0.00000997	
O		1.86187115		4.31784451		4.35330977		 0.00054900		-0.00010109		-0.00000997	
O		1.84701012		10.03684456		4.22946055		-0.00021617		-0.00030227		 0.00023583	
O		4.84208194		1.40115498		4.71093477		 0.00021617		 0.00030227		-0.00023583	
O		1.86187115		1.40115498		4.35330977		 0.00054901		 0.00010109		-0.00000997	
O		4.82721975		10.03684456		4.58708555		-0.00054901		-0.00010109		 0.00000997	
O		4.84208194		4.31784451		4.71093477		 0.00021617		-0.00030228		-0.00023583	
O		1.84701012		7.12015446		4.22946055		-0.00021617		 0.00030228		 0.00023583	
