# total energy = -12340.670994 eV	

CRYSTAL	
PRIMVEC	
		4.44490067		0.53338701		0.00000000	
		0.55977768		4.66480054		0.00000000	
		0.00000000		0.00000000		6.45440136	
PRIMCOORD
   20 1	
O		0.74133295		2.27513184		1.61359989		-0.00000948		-0.00057422		0.00000000	
O		4.26334316		2.92305705		4.84080012		 0.00000948		 0.00057422		0.00000000	
O		2.71132418		0.43800096		4.84080012		-0.00070269		 0.00034035		0.00000000	
O		2.29335193		4.76018703		1.61359989		 0.00070269		-0.00034035		0.00000000	
O		0.94551481		1.00494195		3.62801788		-0.00052427		-0.00081629		-0.00082714	
O		4.05916085		4.19324694		2.82638213		 0.00052427		 0.00081629		 0.00082714	
O		3.23077181		1.79502579		2.82638213		-0.00062766		 0.00030560		-0.00018263	
O		1.77390385		3.40316176		3.62801788		 0.00062766		-0.00030560		 0.00018263	
O		4.05916085		4.19324694		0.40081810		 0.00052427		 0.00081629		-0.00082714	
O		0.94551481		1.00494195		6.05358192		-0.00052427		-0.00081629		 0.00082714	
O		1.77390385		3.40316176		6.05358192		 0.00062766		-0.00030560		-0.00018263	
O		3.23077181		1.79502579		0.40081810		-0.00062766		 0.00030560		 0.00018263	
Mg		2.62896918		2.98991610		1.61359989		 0.00001553		 0.00050732		-0.00000000	
Mg		2.37570694		2.20827190		4.84080012		-0.00001553		-0.00050732		-0.00000000	
Mg		0.59493882		4.29339405		4.84080012		 0.00013735		-0.00000873		-0.00000000	
Mg		4.40973684		0.90479484		1.61359989		-0.00013735		 0.00000873		-0.00000000	
Si		2.22244989		0.26669395		3.22719978		-0.00000000		0.00000000		0.00000000	
Si		0.27988794		2.33239982		3.22719978		0.00000000		0.00000000		0.00000000	
Si		2.22244989		0.26669395		0.00000000		0.00000000		0.00000000		0.00000000	
Si		0.27988794		2.33239982		0.00000000		0.00000000		-0.00000000		0.00000000	
