# total energy = -12347.5292126 eV	

CRYSTAL	
PRIMVEC	
		4.44490026		-0.17779583		0.00000000	
		-0.18659043		4.66480072		0.00000000	
		0.00000000		0.00000000		6.45440065	
PRIMCOORD
   20 1	
O		0.38643502		2.19910598		1.61359994		 0.00040323		 0.00034762		0.00000000	
O		3.87187303		2.28789802		4.84080026		-0.00040323		-0.00034762		-0.00000000	
O		2.69303791		0.00638309		4.84080026		 0.00058108		-0.00052995		0.00000000	
O		1.56527015		4.48062091		1.61359994		-0.00058108		 0.00052995		0.00000000	
O		0.80079389		0.87102609		3.62801809		 0.00048227		 0.00001956		 0.00003316	
O		3.45751328		3.61597790		2.82638211		-0.00048227		-0.00001956		-0.00003316	
O		3.00230915		1.30551821		2.82638211		 0.00014668		-0.00023121		 0.00029045	
O		1.25599891		3.18148622		3.62801809		-0.00014668		 0.00023121		-0.00029045	
O		3.45751328		3.61597790		0.40081821		-0.00048227		-0.00001956		 0.00003316	
O		0.80079389		0.87102609		6.05358199		 0.00048227		 0.00001956		-0.00003316	
O		1.25599891		3.18148622		6.05358199		-0.00014668		 0.00023121		 0.00029045	
O		3.00230915		1.30551821		0.40081821		 0.00014668		-0.00023121		-0.00029045	
Mg		2.19480699		2.62137997		1.61359994		 0.00061177		-0.00029071		0.00000000	
Mg		2.06350107		1.86562402		4.84080026		-0.00061177		 0.00029071		0.00000000	
Mg		-0.09044998		4.28045024		4.84080026		-0.00035699		 0.00033099		0.00000000	
Mg		4.34875804		0.20655420		1.61359994		 0.00035699		-0.00033099		0.00000000	
Si		2.22245013		-0.08889792		3.22719988		0.00000000		0.00000000		0.00000000	
Si		-0.09329610		2.33239991		3.22719988		0.00000000		0.00000000		0.00000000	
Si		2.22245013		-0.08889792		0.00000000		0.00000000		0.00000000		0.00000000	
Si		-0.09329610		2.33239991		0.00000000		0.00000000		0.00000000		0.00000000	
