# total energy = -12340.6709941 eV	

CRYSTAL	
PRIMVEC	
		4.44490067		-0.53338701		0.00000000	
		-0.55977768		4.66480054		0.00000000	
		0.00000000		0.00000000		6.45440136	
PRIMCOORD
   20 1	
O		0.20898590		2.16109281		1.61359989		-0.00070260		-0.00034037		0.00000000	
O		3.67613799		1.97031893		4.84080012		 0.00070260		 0.00034037		0.00000000	
O		2.68389490		-0.20942597		4.84080012		-0.00000959		 0.00057410		0.00000000	
O		1.20122899		4.34083816		1.61359989		 0.00000959		-0.00057410		0.00000000	
O		0.72843398		0.80406799		3.62801788		-0.00062783		-0.00030556		 0.00018279	
O		3.15668991		3.32734376		2.82638213		 0.00062783		 0.00030556		-0.00018279	
O		2.88807676		1.06076392		2.82638213		-0.00052417		 0.00081623		 0.00082713	
O		0.99704713		3.07064782		3.62801788		 0.00052417		-0.00081623		-0.00082713	
O		3.15668991		3.32734376		0.40081810		 0.00062783		 0.00030556		 0.00018279	
O		0.72843398		0.80406799		6.05358192		-0.00062783		-0.00030556		-0.00018279	
O		0.99704713		3.07064782		6.05358192		 0.00052417		-0.00081623		 0.00082713	
O		2.88807676		1.06076392		0.40081810		-0.00052417		 0.00081623		-0.00082713	
Mg		1.97772488		2.43711281		1.61359989		 0.00013734		 0.00000882		0.00000000	
Mg		1.90739901		1.69429893		4.84080012		-0.00013734		-0.00000882		0.00000000	
Mg		-0.43314499		4.27397777		4.84080012		 0.00001548		-0.00050718		0.00000000	
Mg		4.31826888		-0.14256603		1.61359989		-0.00001548		 0.00050718		0.00000000	
Si		2.22244989		-0.26669395		3.22719978		-0.00000000		-0.00000000		-0.00000000	
Si		-0.27988794		2.33239982		3.22719978		0.00000000		0.00000000		-0.00000000	
Si		2.22244989		-0.26669395		0.00000000		0.00000000		0.00000000		-0.00000000	
Si		-0.27988794		2.33239982		0.00000000		0.00000000		0.00000000		-0.00000000	
