# total energy = -12334.6946537 eV	

CRYSTAL	
PRIMVEC	
		4.44490174		0.71118626		0.00000000	
		0.74636948		4.66480136		0.00000000	
		0.00000000		0.00000000		6.45440097	
PRIMCOORD
   20 1	
O		0.83005791		2.29413803		1.61360024		-0.00004464		-0.00031799		0.00000000	
O		4.36121016		3.08184599		4.84080027		 0.00004464		 0.00031799		0.00000000	
O		2.71589595		0.54590481		4.84080027		-0.00081252		-0.00002315		-0.00000000	
O		2.47537211		4.83007921		1.61360024		 0.00081252		 0.00002315		-0.00000000	
O		0.98169506		1.03842080		3.62801818		 0.00066565		-0.00002623		-0.00032417	
O		4.20957301		4.33756412		2.82638188		-0.00066565		 0.00002623		 0.00032417	
O		3.28788793		1.91740301		2.82638188		 0.00006092		-0.00005550		 0.00039911	
O		1.90338014		3.45858101		3.62801818		-0.00006092		 0.00005550		-0.00039911	
O		4.20957301		4.33756412		0.40081815		-0.00066565		 0.00002623		-0.00032417	
O		0.98169506		1.03842080		6.05358192		 0.00066565		-0.00002623		 0.00032417	
O		1.90338014		3.45858101		6.05358192		-0.00006092		 0.00005550		 0.00039911	
O		3.28788793		1.91740301		0.40081815		 0.00006092		-0.00005550		-0.00039911	
Mg		2.73750915		3.08204990		1.61360024		-0.00010374		 0.00005451		-0.00000000	
Mg		2.45375892		2.29393411		4.84080027		 0.00010374		-0.00005451		-0.00000000	
Mg		0.76628698		4.29662897		4.84080027		-0.00020888		-0.00004486		0.00000000	
Mg		4.42498109		1.07935505		1.61360024		 0.00020888		 0.00004486		0.00000000	
Si		2.22244997		0.35559223		3.22720003		0.00000000		0.00000000		0.00000000	
Si		0.37318384		2.33240023		3.22720003		0.00000000		0.00000000		0.00000000	
Si		2.22244997		0.35559223		0.00000000		0.00000000		0.00000000		0.00000000	
Si		0.37318384		2.33240023		0.00000000		0.00000000		0.00000000		0.00000000	
