# total energy = -14248.0869632 eV	

CRYSTAL	
PRIMVEC	
		7.72999987		0.00000000		0.00000000	
		0.00000000		7.72999987		0.00000000	
		0.00000000		0.00000000		4.50900168	
PRIMCOORD
   24 1	
Ca		2.55089996		1.31409998		2.29958993		-0.00029123		 0.00029123		 0.00045017	
Ca		5.17909991		6.41589989		2.29958993		 0.00029123		-0.00029123		 0.00045017	
Ca		1.31409998		5.17909991		2.20941021		 0.00029123		 0.00029123		-0.00045017	
Ca		6.41589989		2.55089996		2.20941021		-0.00029123		-0.00029123		-0.00045017	
Si		1.08219998		2.78279995		4.28355005		 0.00001963		-0.00001963		-0.00014679	
Si		6.64779989		4.94719992		4.28355005		-0.00001963		 0.00001963		-0.00014679	
Si		2.78279995		6.64779989		0.22545008		-0.00001963		-0.00001963		 0.00014679	
Si		4.94719992		1.08219998		0.22545008		 0.00001963		 0.00001963		 0.00014679	
Mg		0.00000000		0.00000000		0.00000000		0.00000000		0.00000000		0.00000000	
Mg		3.86499994		3.86499994		0.00000000		0.00000000		0.00000000		0.00000000	
O		3.86499994		0.00000000		0.85670970		0.00000000		0.00000000		-0.00042569	
O		0.00000000		3.86499994		3.65228966		0.00000000		0.00000000		 0.00042569	
O		1.08219998		2.78279995		1.17234028		-0.00037500		 0.00037500		-0.00009204	
O		6.64779989		4.94719992		1.17234028		 0.00037500		-0.00037500		-0.00009204	
O		2.78279995		6.64779989		3.33665986		 0.00037500		 0.00037500		 0.00009204	
O		4.94719992		1.08219998		3.33665986		-0.00037500		-0.00037500		 0.00009204	
O		0.61839999		1.39139998		3.65228966		-0.00034571		 0.00017317		-0.00012168	
O		7.11159988		6.33859989		3.65228966		 0.00034571		-0.00017317		-0.00012168	
O		1.39139998		7.11159988		0.85670970		 0.00017317		 0.00034571		 0.00012168	
O		6.33859989		0.61839999		0.85670970		-0.00017317		-0.00034571		 0.00012168	
O		3.24659995		5.25639991		0.85670970		 0.00034571		 0.00017317		 0.00012168	
O		4.48339993		2.47359996		0.85670970		-0.00034571		-0.00017317		 0.00012168	
O		2.47359996		3.24659995		3.65228966		-0.00017317		 0.00034571		-0.00012168	
O		5.25639991		4.48339993		3.65228966		 0.00017317		-0.00034571		-0.00012168	
