# total energy = -24716.0436492 eV

CRYSTAL
PRIMVEC
		10.33426503		0.00000000		0.00000000
		0.00000000		8.82245506		0.00000000
		-1.74948773		0.00000000		4.91196918
PRIMECORD
   40 1
Mg		2.19062030		5.76459564		1.07424788		 0.00018961		-0.00011374		-0.00019904
Mg		6.39416010		3.05786458		3.83772233		-0.00018961		 0.00011374		 0.00019904
Mg		7.26890293		1.35336501		1.38173670		-0.00018961		-0.00011374		 0.00019904
Mg		1.31587747		7.46909521		3.53023350		 0.00018961		 0.00011374		-0.00019904
Mg		2.27423380		0.10675192		1.06000313		 0.00050202		 0.00006624		 0.00035339
Mg		6.31054556		8.71570934		3.85196708		-0.00050202		-0.00006624		-0.00035339
Mg		7.18528943		4.51798152		1.39598249		-0.00050202		 0.00006624		-0.00035339
Mg		1.39949097		4.30447767		3.51598772		 0.00050202		-0.00006624		 0.00035339
Si		-0.04372841		2.99610702		1.46327612		-0.00023388		 0.00011824		-0.00075711
Si		8.62850881		5.82635321		3.44869409		 0.00023388		-0.00011824		 0.00075711
Si		9.50325060		7.40733661		0.99270950		 0.00023388		 0.00011824		 0.00075711
Si		-0.91847124		1.41512258		3.91926071		-0.00023388		-0.00011824		-0.00075711
Si		5.31704756		7.39057547		1.11108850		-0.00026258		 0.00025155		 0.00004264
Si		3.26773180		1.43188476		3.80088170		 0.00026258		-0.00025155		-0.00004264
Si		4.14247360		2.97934484		1.34489712		 0.00026258		 0.00025155		-0.00004264
Si		4.44230577		5.84311539		3.56707206		-0.00026258		-0.00025155		 0.00004264
O		8.65278090		3.00757702		0.92295941		-0.00057481		 0.00015736		-0.00002415
O		-0.06800050		5.81488321		3.98901080		 0.00057481		-0.00015736		 0.00002415
O		0.80674130		7.41880661		1.53302621		 0.00057481		 0.00015736		 0.00002415
O		7.77803910		1.40365258		3.37894400		-0.00057481		-0.00015736		-0.00002415
O		0.73158226		4.41652281		1.57576046		-0.00039759		 0.00002083		 0.00008298
O		7.85319814		4.40593742		3.33620974		 0.00039759		-0.00002083		-0.00008298
O		8.72794097		0.00529321		0.88022516		 0.00039759		 0.00002083		-0.00008298
O		-0.14316057		8.81716702		4.03174505		-0.00039759		-0.00002083		 0.00008298
O		0.00786334		2.47911061		3.00710784		 0.00056039		-0.00011103		-0.00025678
O		8.57691809		6.34334859		1.90486237		-0.00056039		 0.00011103		 0.00025678
O		7.70217526		6.89034227		4.36084695		-0.00056039		-0.00011103		 0.00025678
O		0.88260514		1.93211899		0.55112325		 0.00056039		 0.00011103		-0.00025678
O		3.64814023		7.39233953		0.62922343		-0.00011693		-0.00045006		-0.00008231
O		4.93664017		1.43012070		4.28274678		 0.00011693		 0.00045006		 0.00008231
O		5.81138196		2.98110890		1.82676219		 0.00011693		-0.00045006		 0.00008231
O		2.77339844		5.84135133		3.08520802		-0.00011693		 0.00045006		-0.00008231
O		5.88661541		8.61424959		1.95791125		-0.00008403		 0.00035461		 0.00025079
O		2.69816499		0.20820960		2.95405896		 0.00008403		-0.00035461		-0.00025079
O		3.57290678		4.20301999		0.49807437		 0.00008403		 0.00035461		-0.00025079
O		5.01187258		4.61944024		4.41389584		-0.00008403		-0.00035461		 0.00025079
O		5.45966869		6.13160983		2.20203553		 0.00002023		 0.00016613		 0.00025352
O		3.12511068		2.69085040		2.70993365		-0.00002023		-0.00016613		-0.00025352
O		3.99985351		1.72038024		0.25394906		-0.00002023		 0.00016613		-0.00025352
O		4.58492689		7.10208103		4.65802115		 0.00002023		-0.00016613		 0.00025352
