# total energy = -24715.3769018 eV

CRYSTAL
PRIMVEC
		10.57459667		0.00000000		0.00000000
		0.00000000		8.82246003		0.00000000
		-1.79017347		0.00000000		4.91197418
PRIMECORD
   40 1
Mg		2.24156388		5.76459545		1.07424790		 0.00057828		-0.00034230		-0.00017199
Mg		6.54286144		3.05786458		3.83772205		-0.00057828		 0.00034230		 0.00017199
Mg		7.43794712		1.35336543		1.38173708		-0.00057828		-0.00034230		 0.00017199
Mg		1.34647926		7.46909459		3.53023287		 0.00057828		 0.00034230		-0.00017199
Mg		2.32712294		0.10675161		1.06000286		 0.00068702		 0.00055574		-0.00009578
Mg		6.45730238		8.71570841		3.85196709		-0.00068702		-0.00055574		 0.00009578
Mg		7.35238911		4.51798162		1.39598212		-0.00068702		 0.00055574		 0.00009578
Mg		1.43203726		4.30447734		3.51598783		 0.00068702		-0.00055574		-0.00009578
Si		-0.04474535		2.99610682		1.46327568		-0.00037183		 0.00006446		-0.00066670
Si		8.82917172		5.82635321		3.44869427		 0.00037183		-0.00006446		 0.00066670
Si		9.72425634		7.40733683		0.99270930		 0.00037183		 0.00006446		 0.00066670
Si		-0.93983103		1.41512319		3.91926065		-0.00037183		-0.00006446		-0.00066670
Si		5.44070084		7.39057504		1.11108768		-0.00003882		-0.00003265		-0.00018503
Si		3.34372554		1.43188499		3.80088227		 0.00003882		 0.00003265		 0.00018503
Si		4.23881121		2.97934503		1.34489730		 0.00003882		-0.00003265		 0.00018503
Si		4.54561516		5.84311500		3.56707159		-0.00003882		 0.00003265		-0.00018503
O		8.85400828		3.00757708		0.92295926		-0.00059490		 0.00028181		-0.00005650
O		-0.06958190		5.81488294		3.98901069		 0.00059490		-0.00028181		 0.00005650
O		0.82550272		7.41880710		1.53302572		 0.00059490		 0.00028181		 0.00005650
O		7.95892366		1.40365293		3.37894423		-0.00059490		-0.00028181		-0.00005650
O		0.74859473		4.41652260		1.57575978		-0.00055531		 0.00021993		 0.00029925
O		8.03583058		4.40593637		3.33621017		 0.00055531		-0.00021993		-0.00029925
O		8.93091520		0.00529259		0.88022520		 0.00055531		 0.00021993		-0.00029925
O		-0.14648989		8.81716638		4.03174475		-0.00055531		-0.00021993		 0.00029925
O		0.00804621		2.47911056		3.00710757		 0.00039338		-0.00011914		-0.00028807
O		8.77638122		6.34334841		1.90486237		-0.00039338		 0.00011914		 0.00028807
O		7.88129554		6.89034163		4.36084735		-0.00039338		-0.00011914		 0.00028807
O		0.90313083		1.93211945		0.55112260		 0.00039338		 0.00011914		-0.00028807
O		3.73298067		7.39233888		0.62922340		 0.00009930		-0.00047904		 0.00034648
O		5.05144570		1.43012114		4.28274655		-0.00009930		 0.00047904		-0.00034648
O		5.94653032		2.98110887		1.82676158		-0.00009930		-0.00047904		-0.00034648
O		2.83789605		5.84135116		3.08520837		 0.00009930		 0.00047904		 0.00034648
O		6.02351233		8.61424939		1.95791090		-0.00038191		 0.00019533		-0.00019784
O		2.76091299		0.20820958		2.95405905		 0.00038191		-0.00019533		 0.00019784
O		3.65599761		4.20301938		0.49807408		 0.00038191		 0.00019533		 0.00019784
O		5.12842771		4.61943959		4.41389587		-0.00038191		-0.00019533		-0.00019784
O		5.58663767		6.13161009		2.20203603		 0.00019983		 0.00058982		 0.00054540
O		3.19778764		2.69084994		2.70993391		-0.00019983		-0.00058982		-0.00054540
O		4.09287438		1.72038008		0.25394894		-0.00019983		 0.00058982		-0.00054540
O		4.69155305		7.10208101		4.65802101		 0.00019983		-0.00058982		 0.00054540
