# total energy = -10314.2096077 eV

CRYSTAL
PRIMVEC
		3.51000009		0.00000000		0.00000000
		0.00000000		3.51000009		0.00000000
		0.00000000		0.00000000		10.71124965
PRIMECORD
   14 1
Si		0.00000000		0.00000000		0.00000000		0.00000000		0.00000000		0.00000000
Si		1.75500004		1.75500004		5.35562517		0.00000000		0.00000000		0.00000000
Mg		0.00000000		0.00000000		4.00600803		0.00000000		0.00000000		-0.00019140
Mg		0.00000000		0.00000000		6.70524232		0.00000000		0.00000000		 0.00019140
Mg		1.75500004		1.75500004		9.36163215		0.00000000		0.00000000		 0.00004902
Mg		1.75500004		1.75500004		1.34961715		0.00000000		0.00000000		-0.00004902
O		0.00000000		1.75500004		0.00000000		0.00000000		0.00000000		0.00000000
O		1.75500004		0.00000000		0.00000000		0.00000000		0.00000000		0.00000000
O		1.75500004		0.00000000		5.35562517		0.00000000		0.00000000		0.00000000
O		0.00000000		1.75500004		5.35562517		0.00000000		0.00000000		0.00000000
O		0.00000000		0.00000000		1.76414289		0.00000000		0.00000000		-0.00012480
O		0.00000000		0.00000000		8.94710711		0.00000000		0.00000000		 0.00012480
O		1.75500004		1.75500004		7.11976807		0.00000000		0.00000000		-0.00000999
O		1.75500004		1.75500004		3.59148193		0.00000000		0.00000000		 0.00000999
