# total energy = -10311.7502254 eV

CRYSTAL
PRIMVEC
		3.51000009		0.00000000		0.00000000
		0.00000000		3.51000009		0.00000000
		0.00000000		0.00000000		9.40499961
PRIMECORD
   14 1
Si		0.00000000		0.00000000		0.00000000		0.00000000		0.00000000		0.00000000
Si		1.75500004		1.75500004		4.70250015		0.00000000		0.00000000		0.00000000
Mg		0.00000000		0.00000000		3.51747007		0.00000000		0.00000000		-0.00000207
Mg		0.00000000		0.00000000		5.88753024		0.00000000		0.00000000		 0.00000207
Mg		1.75500004		1.75500004		8.21997022		0.00000000		0.00000000		 0.00004430
Mg		1.75500004		1.75500004		1.18503008		0.00000000		0.00000000		-0.00004430
O		0.00000000		1.75500004		0.00000000		0.00000000		0.00000000		0.00000000
O		1.75500004		0.00000000		0.00000000		0.00000000		0.00000000		0.00000000
O		1.75500004		0.00000000		4.70250015		0.00000000		0.00000000		0.00000000
O		0.00000000		1.75500004		4.70250015		0.00000000		0.00000000		0.00000000
O		0.00000000		0.00000000		1.54900305		0.00000000		0.00000000		-0.00009472
O		0.00000000		0.00000000		7.85599620		0.00000000		0.00000000		 0.00009472
O		1.75500004		1.75500004		6.25150426		0.00000000		0.00000000		 0.00001588
O		1.75500004		1.75500004		3.15349605		0.00000000		0.00000000		-0.00001588
