# total energy = -9215.14729928 eV	

CRYSTAL	
PRIMVEC	
		5.32599971		0.00000000		0.00000000	
		-2.66299986		4.61244890		-0.36899591	
		0.00000000		-0.58304251		7.28800214	
PRIMCOORD
   18 1	
Mg		1.76716670		-0.26528272		3.31603985		-0.00066788		 0.00032243		 0.00031008	
Mg		-0.88358282		1.26512785		3.19360684		 0.00000653		-0.00031209		 0.00023233	
Mg		1.77941704		2.81675667		3.06947696		 0.00018507		 0.00049453		-0.00027257	
Si		0.00000000		3.03182267		0.29331505		 0.00002845		-0.00009501		 0.00002852	
Si		2.66299986		1.49433917		0.41631316		-0.00006026		-0.00024331		 0.00003829	
H		3.10505783		-0.42678514		5.33481584		-0.00020258		 0.00028112		 0.00044812	
H		-1.55252892		2.26227377		5.11969072		-0.00018950		-0.00009170		 0.00031287	
H		1.11047094		1.49660698		5.18094451		-0.00008632		 0.00027379		-0.00021630	
H		0.00000000		-0.11485891		1.43573613		 0.00014495		-0.00032498		-0.00047910	
O		0.00000000		2.90524496		1.87553908		 0.00054205		-0.00018039		 0.00026993	
O		2.66299986		1.36776093		1.99853772		 0.00029160		-0.00028016		 0.00013928	
O		2.70028185		-0.57837587		7.22969575		-0.00016337		-0.00022461		-0.00035551	
O		-1.35014093		1.76013692		7.04261469		-0.00014437		 0.00014869		 0.00002113	
O		1.31285893		1.69556290		7.04778038		 0.00027299		 0.00040061		 0.00000688	
O		3.53646381		-0.34282821		4.28534357		-0.00058241		 0.00011085		-0.00014091	
O		-1.76823190		2.71983999		4.04033054		 0.00035027		-0.00006539		-0.00019493	
O		0.89476795		1.20695569		4.16136069		-0.00016528		-0.00059655		-0.00047751	
O		0.00000000		-0.17724394		2.21555197		 0.00044003		 0.00038217		 0.00032942	
