# total energy = -9215.21972788 eV	

CRYSTAL	
PRIMVEC	
		5.32599971		0.00000000		0.00000000	
		-2.66299986		4.61244890		0.18449796	
		0.00000000		0.29151859		7.28800214	
PRIMCOORD
   18 1	
Mg		1.76716670		0.13264189		3.31603985		 0.00039030		 0.00054709		 0.00013816	
Mg		-0.88358282		1.66305300		3.37725689		-0.00009670		 0.00066634		 0.00019020	
Mg		1.77941704		3.21468182		3.43932183		-0.00034695		 0.00005639		 0.00050942	
Si		0.00000000		3.09653996		0.66231097		-0.00012739		 0.00034524		-0.00023036	
Si		2.66299986		1.55905593		0.60081111		-0.00009507		 0.00030115		-0.00018643	
H		3.10505783		0.21339310		5.33481584		 0.00014453		 0.00004012		-0.00057630	
H		-1.55252892		2.90245201		5.44237760		 0.00002425		 0.00015333		-0.00010994	
H		1.11047094		2.13678469		5.41175150		 0.00004544		-0.00016494		-0.00070063	
H		0.00000000		0.05742919		1.43573613		-0.00006303		-0.00012896		 0.00049564	
O		0.00000000		3.15982881		2.24453606		-0.00012183		-0.00033862		-0.00025413	
O		2.66299986		1.62234478		2.18303567		-0.00008659		-0.00035835		-0.00030000	
O		2.70028185		0.28918794		7.22969575		 0.00009537		 0.00031482		-0.00013752	
O		-1.35014093		2.62770073		7.32323682		 0.00004534		 0.00009640		-0.00005724	
O		1.31285893		2.56312564		7.32065371		-0.00029586		 0.00004057		-0.00004489	
O		3.53646381		0.17141411		4.28534357		-0.00016604		-0.00005484		 0.00051348	
O		-1.76823190		3.23408071		4.40785062		 0.00046151		-0.00042001		-0.00002251	
O		0.89476795		1.72119800		4.34733501		 0.00021856		-0.00023431		 0.00074910	
O		0.00000000		0.08862197		2.21555197		-0.00002583		-0.00086140		 0.00002396	
