# total energy = -9215.11916867 eV	

CRYSTAL	
PRIMVEC	
		5.32599971		0.00000000		0.00000000	
		-2.66299986		4.61244890		0.55349387	
		0.00000000		0.87456111		7.28800214	
PRIMCOORD
   18 1	
Mg		1.76716670		0.39792514		3.31603985		-0.00020552		-0.00034456		 0.00077637	
Mg		-0.88358282		1.92833572		3.49968991		-0.00035272		 0.00030955		 0.00018880	
Mg		1.77941704		3.47996507		3.68588473		-0.00006212		-0.00020337		 0.00074841	
Si		0.00000000		3.13968482		0.90830771		-0.00003560		 0.00018362		-0.00002673	
Si		2.66299986		1.60220079		0.72380975		-0.00004993		 0.00008563		 0.00009378	
H		3.10505783		0.64017771		5.33481584		-0.00000616		 0.00013399		-0.00068774	
H		-1.55252892		3.32923662		5.65750271		-0.00000125		 0.00015928		-0.00049459	
H		1.11047094		2.56356983		5.56562283		 0.00011546		-0.00006052		-0.00075272	
H		0.00000000		0.17228810		1.43573613		 0.00008250		 0.00074978		-0.00046867	
O		0.00000000		3.32955191		2.49053280		 0.00007055		-0.00004483		-0.00030483	
O		2.66299986		1.79206788		2.30603484		 0.00071267		-0.00008591		-0.00014289	
O		2.70028185		0.86756381		7.22969575		-0.00069775		 0.00010726		 0.00029519	
O		-1.35014093		3.20607660		7.51031735		 0.00032208		-0.00059100		 0.00036542	
O		1.31285893		3.14150205		7.50256856		-0.00012878		-0.00016189		 0.00032707	
O		3.53646381		0.51424072		4.28534357		-0.00040209		-0.00022938		 0.00072679	
O		-1.76823190		3.57690892		4.65286365		-0.00025769		 0.00061049		-0.00032712	
O		0.89476795		2.06402515		4.47131790		 0.00005881		 0.00003214		 0.00035605	
O		0.00000000		0.26586592		2.21555197		 0.00083755		-0.00065026		-0.00067256	
