# total energy = -9215.14729928 eV	

CRYSTAL	
PRIMVEC	
		5.32599971		0.00000000		0.00000000	
		-2.66299986		4.61244890		0.36899591	
		0.00000000		0.58304251		7.28800214	
PRIMCOORD
   18 1	
Mg		1.76716670		0.26528272		3.31603985		-0.00066794		-0.00032245		 0.00031007	
Mg		-0.88358282		1.79569489		3.43847287		 0.00018511		-0.00049459		-0.00027259	
Mg		1.77941704		3.34732265		3.56260275		 0.00000660		 0.00031215		 0.00023236	
Si		0.00000000		3.11811292		0.78530907		-0.00006023		 0.00024331		 0.00003833	
Si		2.66299986		1.58062889		0.66231097		 0.00002846		 0.00009499		 0.00002853	
H		3.10505783		0.42678514		5.33481584		-0.00020258		-0.00028110		 0.00044787	
H		-1.55252892		3.11584458		5.54994096		-0.00008636		-0.00027376		-0.00021641	
H		1.11047094		2.35017779		5.48868663		-0.00018953		 0.00009167		 0.00031272	
H		0.00000000		0.11485891		1.43573613		 0.00014495		 0.00032497		-0.00047889	
O		0.00000000		3.24469063		2.36753363		 0.00029161		 0.00028019		 0.00013919	
O		2.66299986		1.70720713		2.24453606		 0.00054204		 0.00018038		 0.00026986	
O		2.70028185		0.57837587		7.22969575		-0.00016337		 0.00022461		-0.00035547	
O		-1.35014093		2.91688866		7.41677682		 0.00027293		-0.00040057		 0.00000689	
O		1.31285893		2.85231358		7.41161060		-0.00014434		-0.00014866		 0.00002113	
O		3.53646381		0.34282821		4.28534357		-0.00058236		-0.00011089		-0.00014068	
O		-1.76823190		3.40549481		4.53035660		-0.00016526		 0.00059648		-0.00047738	
O		0.89476795		1.89261104		4.40932699		 0.00035022		 0.00006538		-0.00019476	
O		0.00000000		0.17724394		2.21555197		 0.00044001		-0.00038211		 0.00032926	
