# total energy = -24713.284393 eV

CRYSTAL
PRIMVEC
		11.30612575		0.00000000		-0.67022722
		0.00000000		10.85044297		0.00000000
		-2.35380777		0.00000000		5.09759576
PRIMECORD
   40 1
Mg		-0.58845385		8.18791708		1.27439703		 0.00000244		 0.00024408		 0.00000023
Mg		-1.76535392		2.66252780		3.82319491		-0.00000289		-0.00024729		0.00000000
Mg		5.06461189		2.76274520		0.93928533		 0.00000262		-0.00008407		 0.00000093
Mg		3.88771086		8.08769396		3.48808225		-0.00000223		 0.00008091		-0.00000054
Mg		-0.58845099		2.76420557		1.27439894		-0.00000200		-0.00005179		-0.00000198
Mg		-1.76535583		8.08623454		3.82319396		 0.00000176		 0.00005054		 0.00000163
Mg		5.06461284		8.18936219		0.93928533		-0.00000191		 0.00025192		-0.00000125
Mg		3.88770991		2.66107887		3.48808321		 0.00000250		-0.00025134		 0.00000115
Si		2.23614791		0.91054332		1.10690604		 0.00034577		 0.00011170		 0.00012004
Si		6.71611665		9.93982621		3.32046059		-0.00018849		 0.00005810		-0.00009074
Si		7.89308350		0.91053473		0.77166652		-0.00035729		 0.00012674		-0.00012064
Si		1.05929744		9.93983765		3.65570392		 0.00019990		 0.00003607		 0.00009132
Si		7.88926706		6.33588404		0.77178576		 0.00020816		-0.00018023		 0.00006225
Si		1.06295839		4.51461426		3.65558660		 0.00002297		 0.00003347		-0.00003999
Si		2.23996339		6.33587164		1.10678490		-0.00022042		-0.00015176		-0.00006274
Si		6.71245665		4.51462380		3.32057887		-0.00001065		 0.00001162		 0.00004053
O		0.99952794		1.82271871		0.50389328		 0.00017939		-0.00003730		-0.00022715
O		7.95281960		9.02771282		3.92347717		-0.00022939		 0.00005531		 0.00021287
O		9.12969583		1.82271489		1.37467929		-0.00017121		-0.00003277		 0.00022972
O		-0.17739884		9.02771568		3.05268638		 0.00022521		 0.00005412		-0.00021366
O		6.65266427		7.24799075		0.16880351		 0.00015486		-0.00001146		-0.00024017
O		2.29970617		3.60239976		4.25857170		-0.00029247		 0.00011881		 0.00019169
O		3.47655855		7.24799075		1.70976619		-0.00014996		-0.00001002		 0.00024117
O		5.47571746		3.60240167		2.71759471		 0.00028531		 0.00011512		-0.00019365
O		3.47349663		1.82315463		1.70924824		-0.00014036		-0.00044113		-0.00001330
O		5.47886523		9.02732173		2.71812793		 0.00003167		 0.00035172		-0.00002981
O		6.65572905		1.82315558		0.16932337		 0.00014343		-0.00044422		 0.00001432
O		2.29655649		9.02731887		4.25803658		-0.00003880		 0.00035796		 0.00002713
O		9.12649273		7.24824830		1.37421190		 0.00003698		-0.00031506		 0.00001972
O		-0.17413565		3.60221185		3.05315855		-0.00011751		 0.00027934		-0.00004076
O		1.00272913		7.24825307		0.50435876		-0.00003054		-0.00032106		-0.00001737
O		7.94955832		3.60220803		3.92300787		 0.00011317		 0.00028330		 0.00003915
O		2.82416489		-0.00068392		-0.16719243		 0.00013568		-0.00003502		-0.00002516
O		6.12813688		10.85116791		4.59458958		-0.00008203		-0.00007403		-0.00008666
O		7.30506747		-0.00067725		2.04576022		-0.00014419		-0.00005024		 0.00004260
O		1.64727722		10.85116219		2.38157970		 0.00009042		-0.00005873		 0.00006911
O		8.47716385		5.42444122		-0.50236231		 0.00010772		 0.00009018		 0.00009605
O		0.47517320		5.42596455		4.92970987		-0.00014912		-0.00000187		-0.00000959
O		1.65206755		5.42445171		2.38092534		-0.00011963		 0.00006929		-0.00007149
O		7.30023993		5.42595310		2.04646323		 0.00016111		 0.00001911		-0.00001496
