# total energy = -24713.8520349 eV

CRYSTAL
PRIMVEC
		11.22021068		-0.00009539		-0.68032870
		-0.00006677		10.76407004		-0.00006677
		-2.34823717		-0.00003815		5.06886519
PRIMECORD
   40 1
Mg		-0.58712129		8.12363292		1.26716956		 0.00001827		 0.00024333		-0.00000558
Mg		-1.76119123		2.64039611		3.80162791		-0.00001832		-0.00024600		 0.00000301
Mg		5.02301648		2.74149774		0.92704145		 0.00002454		 0.00003858		-0.00001530
Mg		3.84887977		8.02243018		3.46142922		-0.00002160		-0.00004105		 0.00001332
Mg		-0.58707455		2.74560224		1.26720199		-0.00001231		-0.00019825		-0.00001586
Mg		-1.76123702		8.01842201		3.80159357		 0.00000925		 0.00019385		 0.00001780
Mg		5.02299263		8.12773742		0.92700902		-0.00000630		-0.00008312		-0.00002511
Mg		3.84890648		2.63619622		3.46146070		 0.00000604		 0.00007670		 0.00002809
Si		2.21708482		0.90356767		1.09746655		-0.00020504		-0.00017937		-0.00007715
Si		6.65490014		9.86034308		3.29100317		-0.00002734		 0.00021104		 0.00004361
Si		7.82919233		0.90345130		0.75661064		-0.00029364		-0.00002431		 0.00005771
Si		1.04261521		9.86050619		3.63186194		 0.00053339		-0.00004678		-0.00002584
Si		7.82706329		6.28553687		0.75727167		-0.00027976		-0.00009043		-0.00009639
Si		1.04493025		4.47834335		3.63119805		 0.00003093		 0.00020834		 0.00006407
Si		2.21914422		6.28555881		1.09674065		-0.00022483		-0.00002936		 0.00007752
Si		6.65265664		4.47835003		3.29173193		 0.00047531		 0.00008363		-0.00004570
O		0.98549079		1.81082681		0.49720474		 0.00018565		-0.00009780		-0.00000181
O		7.88635680		8.95314117		3.89125926		-0.00005566		 0.00000979		 0.00004730
O		9.06047921		1.81067324		1.35686672		 0.00006003		 0.00006273		 0.00007583
O		-0.18854767		8.95327757		3.03160872		-0.00014711		-0.00011001		-0.00010318
O		6.59556942		7.19317566		0.15708140		 0.00029482		-0.00022406		 0.00003591
O		2.27627626		3.57079995		4.23138164		-0.00014878		 0.00011771		 0.00001681
O		3.45032808		7.19311556		1.69692520		-0.00004601		-0.00006210		 0.00004087
O		5.42161204		3.57084765		2.69155120		-0.00007245		-0.00001710		-0.00008186
O		3.45035002		1.80771147		1.69784091		 0.00015886		 0.00026346		-0.00008016
O		5.42150998		8.95618974		2.69062595		-0.00005739		-0.00019573		 0.00011370
O		6.59563524		1.80776107		0.15623341		 0.00004787		 0.00012398		 0.00014374
O		2.27631824		8.95612010		4.23224584		-0.00019711		-0.00001197		-0.00019840
O		9.06045822		7.18939929		1.35771853		 0.00023577		 0.00037127		-0.00005536
O		-0.18859632		3.57450478		3.03074737		-0.00013874		-0.00031506		 0.00008537
O		0.98545455		7.18954714		0.49629093		-0.00002661		 0.00022926		 0.00011782
O		7.88649035		3.57434549		3.89218642		-0.00009857		-0.00014555		-0.00016024
O		2.80409832		-0.00019554		-0.16971923		-0.00025848		 0.00006432		 0.00002149
O		6.06779888		10.76412632		4.55818990		 0.00025712		-0.00005665		-0.00001784
O		7.24204242		-0.00018600		2.02375921		 0.00015640		-0.00010937		 0.00018832
O		1.62985860		10.76411678		2.36470955		-0.00015748		 0.00011362		-0.00018761
O		8.41395756		5.38179560		-0.50990075		-0.00025029		-0.00001200		-0.00008623
O		0.45792533		5.38215998		4.89839336		 0.00028495		-0.00005129		 0.00001354
O		1.63208111		5.38185760		2.36391403		 0.00020740		-0.00008951		 0.00017430
O		7.23983230		5.38209798		2.02453471		-0.00024276		 0.00002525		-0.00010052
