# total energy = -24716.6068378 eV

CRYSTAL
PRIMVEC
		10.06304236		0.00001908		-0.23129440
		0.00001908		8.70885220		0.00000000
		-1.89924102		0.00000000		4.94494794
PRIMECORD
   40 1
Mg		-0.47479452		7.86948666		1.23623555		 0.00000160		-0.00031868		 0.00000223
Mg		-1.42443029		0.83936077		3.70870952		 0.00000543		 0.00031166		 0.00000234
Mg		4.55671426		3.51507296		1.12059026		 0.00000038		-0.00038718		 0.00000102
Mg		3.60709948		5.19378592		3.59306042		 0.00000304		 0.00040792		 0.00000252
Mg		-0.47480692		2.30161201		1.23623460		 0.00000404		 0.00007535		 0.00000677
Mg		-1.42441694		6.40723352		3.70871048		-0.00000084		-0.00007944		-0.00000355
Mg		4.55672190		6.65604001		1.12058549		 0.00000410		 0.00006908		 0.00000916
Mg		3.60709185		2.05282459		3.59306423		-0.00000180		-0.00006863		-0.00000278
Si		2.37413188		0.79111689		1.39782495		 0.00011120		-0.00023780		-0.00006631
Si		5.78976199		7.91783928		3.31584958		-0.00034663		-0.00005427		-0.00002102
Si		6.73930142		0.79113024		0.84335176		-0.00014290		-0.00025725		 0.00007138
Si		1.42447703		7.91778873		3.87028843		 0.00025734		 0.00007991		-0.00002771
Si		7.40565402		5.14543997		1.28219396		 0.00011454		 0.00008561		-0.00004716
Si		0.75815972		3.56339125		3.43145576		-0.00011196		 0.00001871		 0.00005767
Si		1.70779550		5.14543806		0.95897988		-0.00013628		 0.00005211		 0.00005680
Si		6.45604209		3.56337408		3.75468224		 0.00007016		 0.00011387		-0.00008988
O		0.87242000		0.81032878		0.78924349		 0.00009567		 0.00001025		-0.00020316
O		7.29135845		7.89853105		3.92439766		 0.00001785		 0.00000892		 0.00024345
O		8.24099613		0.81034404		1.45193418		-0.00008788		 0.00001107		 0.00020350
O		-0.07716045		7.89851674		3.26172223		 0.00002370		 0.00000317		-0.00022453
O		5.90392782		5.16477587		0.67358961		 0.00015317		-0.00002531		-0.00018083
O		2.25988687		3.54409732		4.04006202		-0.00015241		-0.00000064		 0.00018276
O		3.20951024		5.16477110		1.56758805		-0.00015048		-0.00002456		 0.00017868
O		4.95429873		3.54410399		3.14606358		 0.00017021		-0.00000699		-0.00017383
O		3.15136137		2.17135343		1.59415906		 0.00004759		 0.00019840		 0.00018440
O		5.01240563		6.53744059		3.11948972		 0.00009358		 0.00003084		-0.00016240
O		5.96206239		2.17136106		0.64702052		-0.00004335		 0.00019375		-0.00018634
O		2.20177997		6.53746539		4.06663398		-0.00003796		-0.00007027		 0.00017368
O		8.18293597		6.52585870		1.47849850		-0.00006691		-0.00002580		 0.00018173
O		-0.01910983		2.18302116		3.23515313		 0.00003937		-0.00002290		-0.00018406
O		0.93051259		6.52584439		0.76267821		 0.00006369		-0.00001908		-0.00018531
O		7.23328494		2.18305550		3.95097247		-0.00000705		-0.00008594		 0.00019146
O		3.29478813		-0.26982025		0.51585862		-0.00004435		-0.00009809		 0.00003930
O		4.86903706		8.97866578		4.19777871		 0.00002050		 0.00015629		 0.00000533
O		5.81862037		-0.26982502		1.72532858		 0.00006346		-0.00007292		-0.00006212
O		2.34518383		8.97867150		2.98833545		-0.00003452		 0.00012783		 0.00002390
O		8.32627116		4.08461825		0.40026675		 0.00003101		-0.00018574		-0.00002234
O		-0.16246695		4.62426161		4.31340110		-0.00000498		 0.00013685		-0.00001864
O		0.78715642		4.08459535		1.84092141		-0.00001202		-0.00015929		-0.00000310
O		7.37666591		4.62428928		2.87271878		-0.00000931		 0.00010919		 0.00004699
