# total energy = -38089.852093 eV

CRYSTAL
PRIMVEC
		5.69210074		0.00000000		-0.68305071
		0.00000000		11.46000237		0.00000000
		-0.99035904		0.00000000		8.25299772
PRIMECORD
   58 1
O		0.55239996		1.40843400		8.01011671		 0.00043160		-0.00013436		-0.00018555
O		4.14934003		10.05156550		-0.44016798		-0.00043160		 0.00013436		 0.00018555
O		3.17304273		4.32156604		7.69563992		 0.00056221		 0.00005311		 0.00065773
O		1.52869668		7.13843404		-0.12569119		-0.00056221		-0.00005311		-0.00065773
O		1.52869668		10.05156550		-0.12569119		-0.00056221		 0.00005311		-0.00065773
O		3.17304273		1.40843400		7.69563992		 0.00056221		-0.00005311		 0.00065773
O		4.14934003		7.13843404		-0.44016798		-0.00043160		-0.00013436		 0.00018555
O		0.55239996		4.32156604		8.01011671		 0.00043160		 0.00013436		-0.00018555
O		2.09773419		5.60966972		5.89444072		 0.00002637		 0.00013125		 0.00039038
O		2.60400579		5.85032979		1.67550686		-0.00002637		-0.00013125		-0.00039038
O		2.09773419		0.12032975		5.89444072		 0.00002637		-0.00013125		 0.00039038
O		2.60400579		11.33966975		1.67550686		-0.00002637		 0.00013125		-0.00039038
O		-0.70989003		2.86500002		5.91575005		-0.00058986		0.00000000		 0.00062664
O		-0.28047016		8.59499948		2.33724997		 0.00058986		0.00000000		-0.00062664
O		-0.21659206		2.86500002		1.80493077		-0.00051757		0.00000000		 0.00000481
O		-0.77376813		8.59499948		6.44806867		 0.00051757		0.00000000		-0.00000481
O		2.13427765		8.59499948		5.58990484		-0.00052791		0.00000000		 0.00016870
O		2.56746176		2.86500002		1.98004274		 0.00052791		0.00000000		-0.00016870
O		2.63133986		8.59499948		1.44772411		-0.00046405		0.00000000		 0.00000529
O		2.07040012		2.86500002		6.12222404		 0.00046405		0.00000000		-0.00000529
O		-0.25313609		11.33966975		2.10946722		-0.00069972		 0.00031223		 0.00005191
O		-0.73722410		0.12032975		6.14353394		 0.00069972		-0.00031223		-0.00005191
O		-0.25313609		5.85032979		2.10946722		-0.00069972		-0.00031223		 0.00005191
O		-0.73722410		5.60966972		6.14353394		 0.00069972		 0.00031223		-0.00005191
O		3.89362985		7.13843404		3.54209077		 0.00078409		 0.00003881		-0.00013583
O		0.80811014		4.32156604		4.02785796		-0.00078409		-0.00003881		 0.00013583
O		0.82217303		10.05156550		3.91066470		 0.00019316		 0.00024798		-0.00000378
O		3.87956695		1.40843400		3.65928288		-0.00019316		-0.00024798		 0.00000378
O		3.87956695		4.32156604		3.65928288		-0.00019316		 0.00024798		 0.00000378
O		0.82217303		7.13843404		3.91066470		 0.00019316		-0.00024798		-0.00000378
O		0.80811014		1.40843400		4.02785796		-0.00078409		 0.00003881		 0.00013583
O		3.89362985		10.05156550		3.54209077		 0.00078409		-0.00003881		-0.00013583
H		2.26025205		8.59499948		4.54012392		 0.00036006		0.00000000		 0.00029474
H		2.44148794		2.86500002		3.02982481		-0.00036006		0.00000000		-0.00029474
H		-0.34256588		2.86500002		2.85471284		 0.00000599		0.00000000		-0.00059635
H		-0.64779373		8.59499948		5.39828660		-0.00000599		0.00000000		 0.00059635
Mg		2.35086971		5.73000004		3.78497408		0.00000000		0.00000000		0.00000000
Mg		2.35086971		0.00000000		3.78497408		0.00000000		-0.00000000		0.00000000
Mg		0.00000000		0.00000000		0.00000000		0.00000000		-0.00000000		0.00000000
Mg		0.00000000		5.73000004		0.00000000		0.00000000		-0.00000000		0.00000000
Mg		1.17543485		1.44854392		1.89248704		 0.00023167		 0.00022475		-0.00003361
Mg		3.52630513		10.01145558		5.67746054		-0.00023167		-0.00022475		 0.00003361
Mg		4.02148465		4.28145612		1.55096111		-0.00029382		 0.00029201		 0.00010120
Mg		0.68025476		7.17854396		6.01898705		 0.00029382		-0.00029201		-0.00010120
Mg		0.68025476		10.01145558		6.01898705		 0.00029382		 0.00029201		-0.00010120
Mg		4.02148465		1.44854392		1.55096111		-0.00029382		-0.00029201		 0.00010120
Mg		3.52630513		7.17854396		5.67746054		-0.00023167		 0.00022475		 0.00003361
Mg		1.17543485		4.28145612		1.89248704		 0.00023167		-0.00022475		-0.00003361
Mg		-0.96074785		2.86500002		8.00623494		-0.00037967		0.00000000		-0.00077106
Mg		-0.02961176		8.59499948		0.24676508		 0.00037967		0.00000000		 0.00077106
Si		2.73057413		7.10634565		0.62077382		-0.00042891		 0.00000062		-0.00020260
Si		1.97116586		4.35365385		6.94917490		 0.00042891		-0.00000062		 0.00020260
Si		2.73057413		10.08365389		0.62077382		-0.00042891		-0.00000062		-0.00020260
Si		1.97116586		1.37634618		6.94917490		 0.00042891		 0.00000062		 0.00020260
Si		-0.61065576		1.37634618		5.08879976		-0.00052465		-0.00001084		 0.00033923
Si		-0.37970385		10.08365389		3.16419968		 0.00052465		 0.00001084		-0.00033923
Si		-0.61065576		4.35365385		5.08879976		-0.00052465		 0.00001084		 0.00033923
Si		-0.37970385		7.10634565		3.16419968		 0.00052465		-0.00001084		-0.00033923
