# total energy = -20636.4380212 eV

CRYSTAL
PRIMVEC
		9.18126887		0.00000000		0.00000000
		0.00000000		5.98347883		0.00000000
		0.00000000		0.00000000		4.75533722
PRIMECORD
   28 1
Mg		0.00000000		0.00000000		0.00000000		0.00000000		-0.00000000		0.00000000
Mg		4.59063535		0.00000000		2.37766953		0.00000000		0.00000000		-0.00000000
Mg		0.00000000		2.99174033		0.00000000		0.00000000		0.00000000		0.00000000
Mg		4.59063535		2.99174033		2.37766953		0.00000000		0.00000000		0.00000000
Mg		2.54596586		1.49587017		4.71492035		 0.00061207		0.00000000		-0.00009470
Mg		6.63530301		4.48760958		0.04041962		-0.00061207		0.00000000		 0.00009470
Mg		2.04466858		4.48760958		2.33724991		-0.00061207		0.00000000		-0.00009470
Mg		7.13660121		1.49587017		2.41809006		 0.00061207		0.00000000		 0.00009470
Si		0.86303927		1.49587017		2.02767680		 0.00014558		0.00000000		-0.00003193
Si		8.31822960		4.48760958		2.72766317		-0.00014558		0.00000000		 0.00003193
Si		3.72759516		4.48760958		4.40534725		-0.00014558		0.00000000		-0.00003193
Si		5.45367371		1.49587017		0.34999272		 0.00014558		0.00000000		 0.00003193
O		0.84100423		1.49587017		3.63926217		 0.00004643		0.00000000		-0.00015213
O		8.34026464		4.48760958		1.11607780		-0.00004643		0.00000000		 0.00015213
O		3.74963021		4.48760958		1.26159173		-0.00004643		0.00000000		-0.00015213
O		5.43163866		1.49587017		3.49374824		 0.00004643		0.00000000		 0.00015213
O		4.10310906		1.49587017		1.05140586		-0.00003289		0.00000000		 0.00063911
O		5.07815981		4.48760958		3.70393503		 0.00003289		0.00000000		-0.00063911
O		0.48752538		4.48760958		3.42907630		 0.00003289		0.00000000		 0.00063911
O		8.69374349		1.49587017		1.32626367		-0.00003289		0.00000000		-0.00063911
O		1.49379153		0.19865236		1.32103310		 0.00007855		 0.00001112		 0.00014924
O		7.68747734		5.78482831		3.43430687		-0.00007855		-0.00001112		-0.00014924
O		3.09684199		5.78482831		3.69870263		-0.00007855		-0.00001112		 0.00014924
O		6.08442688		0.19865236		1.05663735		 0.00007855		 0.00001112		-0.00014924
O		7.68747734		3.19039177		3.43430687		-0.00007855		 0.00001112		-0.00014924
O		1.49379153		2.79308797		1.32103310		 0.00007855		-0.00001112		 0.00014924
O		6.08442688		2.79308797		1.05663735		 0.00007855		-0.00001112		-0.00014924
O		3.09684199		3.19039177		3.69870263		-0.00007855		 0.00001112		 0.00014924
