
     Program PWSCF v.6.6 starts on  4Feb2024 at 13:34:19 

     This program is part of the open-source Quantum ESPRESSO suite
     for quantum simulation of materials; please cite
         "P. Giannozzi et al., J. Phys.:Condens. Matter 21 395502 (2009);
         "P. Giannozzi et al., J. Phys.:Condens. Matter 29 465901 (2017);
          URL http://www.quantum-espresso.org", 
     in publications or presentations arising from this work. More details at
     http://www.quantum-espresso.org/quote

     Parallel version (MPI & OpenMP), running on      16 processor cores
     Number of MPI processes:                16
     Threads/MPI process:                     1

     MPI processes distributed on     2 nodes
     R & G space division:  proc/nbgrp/npool/nimage =      16
     Fft bands division:     nmany     =       1
     Waiting for input...
     Reading input from standard input

     Current dimensions of program PWSCF are:
     Max number of different atomic species (ntypx) = 10
     Max number of k-points (npk) =  40000
     Max angular momentum in pseudopotentials (lmaxx) =  3

     IMPORTANT: XC functional enforced from input :
     Exchange-correlation= PBE
                           (   1   4   3   4   0   0   0)
     Any further DFT definition will be discarded
     Please, verify this is what you really want


     --------------------------------------------
     Parameters for DFT-D3 Dispersion Correction:
     --------------------------------------------
       Reference C6 values for interpolation: 

         atom   Coordination number   C6
         O          0.000            31.01
         O          0.993            25.63
         O          1.989            20.74
         Mg         0.000          1366.75
         Mg         0.963           902.54
         Mg         1.950           351.12

       Values used:

         atom   Coordination number  R0_AB[au]  C6      C8
         Mg        16.582            3.292    351.12  31436.69
         Mg        16.582            3.292    351.12  31436.69
         Mg        16.582            3.292    351.12  31436.69
         Mg        16.582            3.292    351.12  31436.69
         O          5.817            2.345     20.74    418.58
         O          5.817            2.345     20.74    418.58
         O          5.817            2.345     20.74    418.58
         O          5.817            2.345     20.74    418.58

         Molecular C6 ( Ry / a.u.^6 ) =      8251.69


     Subspace diagonalization in iterative solution of the eigenvalue problem:
     a serial algorithm will be used

     Found symmetry operation: I + (  0.0000 -0.5000 -0.5000)
     This is a supercell, fractional translations are disabled
 
     Parallelization info
     --------------------
     sticks:   dense  smooth     PW     G-vecs:    dense   smooth      PW
     Min         126     126     35                 4252     4252     619
     Max         127     127     36                 4255     4255     623
     Sum        2025    2025    561                68051    68051    9939
 


     bravais-lattice index     =            0
     lattice parameter (alat)  =       7.9576  a.u.
     unit-cell volume          =     503.9092 (a.u.)^3
     number of atoms/cell      =            8
     number of atomic types    =            2
     number of electrons       =        64.00
     number of Kohn-Sham states=           38
     kinetic-energy cutoff     =     100.0000  Ry
     charge density cutoff     =     400.0000  Ry
     convergence threshold     =      1.0E-06
     mixing beta               =       0.5000
     number of iterations used =            8  plain     mixing
     Exchange-correlation= PBE
                           (   1   4   3   4   0   0   0)
     nstep                     =          100


     celldm(1)=   7.957637  celldm(2)=   0.000000  celldm(3)=   0.000000
     celldm(4)=   0.000000  celldm(5)=   0.000000  celldm(6)=   0.000000

     crystal axes: (cart. coord. in units of alat)
               a(1) = (   1.000000   0.000000   0.000000 )  
               a(2) = (   0.000000   1.000000   0.000000 )  
               a(3) = (   0.000000   0.000000   1.000000 )  

     reciprocal axes: (cart. coord. in units 2 pi/alat)
               b(1) = (  1.000000  0.000000  0.000000 )  
               b(2) = (  0.000000  1.000000  0.000000 )  
               b(3) = (  0.000000  0.000000  1.000000 )  


     PseudoPot. # 1 for Mg read from file:
     ./Mg.upf
     MD5 check sum: 4c04d8c6e0476e83eaecaf72fa8acc4d
     Pseudo is Norm-conserving, Zval = 10.0
     Generated using ONCVPSP code by D. R. Hamann
     Using radial grid of 1510 points,  4 beta functions with: 
                l(1) =   0
                l(2) =   0
                l(3) =   1
                l(4) =   1

     PseudoPot. # 2 for O  read from file:
     ./O.upf
     MD5 check sum: 3e3f909f7470e8921608ab6b1f57bbae
     Pseudo is Norm-conserving + core correction, Zval =  6.0
     Generated using ONCVPSP code by D. R. Hamann
     Using radial grid of  936 points,  5 beta functions with: 
                l(1) =   0
                l(2) =   0
                l(3) =   1
                l(4) =   1
                l(5) =   2

     atomic species   valence    mass     pseudopotential
        Mg            10.00    24.30500     Mg( 1.00)
        O              6.00    15.99900     O ( 1.00)

     No symmetry found



   Cartesian axes

     site n.     atom                  positions (alat units)
         1           Mg  tau(   1) = (   0.0000000   0.0000000   0.0000000  )
         2           Mg  tau(   2) = (   0.0000000   0.5000000   0.5000000  )
         3           Mg  tau(   3) = (   0.5000000   0.0000000   0.5000000  )
         4           Mg  tau(   4) = (   0.5000000   0.5000000   0.0000000  )
         5           O   tau(   5) = (   0.5000000   0.5000000   0.5000000  )
         6           O   tau(   6) = (   0.5000000   0.0000000   0.0000000  )
         7           O   tau(   7) = (   0.0000000   0.5000000   0.0000000  )
         8           O   tau(   8) = (   0.0000000   0.0000000   0.5000000  )

     number of k points=    63  Gaussian smearing, width (Ry)=  0.0050
                       cart. coord. in units 2pi/alat
        k(    1) = (   0.0000000   0.0000000   0.0000000), wk =   0.0160000
        k(    2) = (   0.0000000   0.0000000   0.2000000), wk =   0.0320000
        k(    3) = (   0.0000000   0.0000000   0.4000000), wk =   0.0320000
        k(    4) = (   0.0000000   0.2000000   0.0000000), wk =   0.0320000
        k(    5) = (   0.0000000   0.2000000   0.2000000), wk =   0.0320000
        k(    6) = (   0.0000000   0.2000000   0.4000000), wk =   0.0320000
        k(    7) = (   0.0000000   0.2000000  -0.4000000), wk =   0.0320000
        k(    8) = (   0.0000000   0.2000000  -0.2000000), wk =   0.0320000
        k(    9) = (   0.0000000   0.4000000   0.0000000), wk =   0.0320000
        k(   10) = (   0.0000000   0.4000000   0.2000000), wk =   0.0320000
        k(   11) = (   0.0000000   0.4000000   0.4000000), wk =   0.0320000
        k(   12) = (   0.0000000   0.4000000  -0.4000000), wk =   0.0320000
        k(   13) = (   0.0000000   0.4000000  -0.2000000), wk =   0.0320000
        k(   14) = (   0.2000000   0.0000000   0.0000000), wk =   0.0320000
        k(   15) = (   0.2000000   0.0000000   0.2000000), wk =   0.0320000
        k(   16) = (   0.2000000   0.0000000   0.4000000), wk =   0.0320000
        k(   17) = (   0.2000000   0.0000000  -0.4000000), wk =   0.0320000
        k(   18) = (   0.2000000   0.0000000  -0.2000000), wk =   0.0320000
        k(   19) = (   0.2000000   0.2000000   0.0000000), wk =   0.0320000
        k(   20) = (   0.2000000   0.2000000   0.2000000), wk =   0.0320000
        k(   21) = (   0.2000000   0.2000000   0.4000000), wk =   0.0320000
        k(   22) = (   0.2000000   0.2000000  -0.4000000), wk =   0.0320000
        k(   23) = (   0.2000000   0.2000000  -0.2000000), wk =   0.0320000
        k(   24) = (   0.2000000   0.4000000   0.0000000), wk =   0.0320000
        k(   25) = (   0.2000000   0.4000000   0.2000000), wk =   0.0320000
        k(   26) = (   0.2000000   0.4000000   0.4000000), wk =   0.0320000
        k(   27) = (   0.2000000   0.4000000  -0.4000000), wk =   0.0320000
        k(   28) = (   0.2000000   0.4000000  -0.2000000), wk =   0.0320000
        k(   29) = (   0.2000000  -0.4000000   0.0000000), wk =   0.0320000
        k(   30) = (   0.2000000  -0.4000000   0.2000000), wk =   0.0320000
        k(   31) = (   0.2000000  -0.4000000   0.4000000), wk =   0.0320000
        k(   32) = (   0.2000000  -0.4000000  -0.4000000), wk =   0.0320000
        k(   33) = (   0.2000000  -0.4000000  -0.2000000), wk =   0.0320000
        k(   34) = (   0.2000000  -0.2000000   0.0000000), wk =   0.0320000
        k(   35) = (   0.2000000  -0.2000000   0.2000000), wk =   0.0320000
        k(   36) = (   0.2000000  -0.2000000   0.4000000), wk =   0.0320000
        k(   37) = (   0.2000000  -0.2000000  -0.4000000), wk =   0.0320000
        k(   38) = (   0.2000000  -0.2000000  -0.2000000), wk =   0.0320000
        k(   39) = (   0.4000000   0.0000000   0.0000000), wk =   0.0320000
        k(   40) = (   0.4000000   0.0000000   0.2000000), wk =   0.0320000
        k(   41) = (   0.4000000   0.0000000   0.4000000), wk =   0.0320000
        k(   42) = (   0.4000000   0.0000000  -0.4000000), wk =   0.0320000
        k(   43) = (   0.4000000   0.0000000  -0.2000000), wk =   0.0320000
        k(   44) = (   0.4000000   0.2000000   0.0000000), wk =   0.0320000
        k(   45) = (   0.4000000   0.2000000   0.2000000), wk =   0.0320000
        k(   46) = (   0.4000000   0.2000000   0.4000000), wk =   0.0320000
        k(   47) = (   0.4000000   0.2000000  -0.4000000), wk =   0.0320000
        k(   48) = (   0.4000000   0.2000000  -0.2000000), wk =   0.0320000
        k(   49) = (   0.4000000   0.4000000   0.0000000), wk =   0.0320000
        k(   50) = (   0.4000000   0.4000000   0.2000000), wk =   0.0320000
        k(   51) = (   0.4000000   0.4000000   0.4000000), wk =   0.0320000
        k(   52) = (   0.4000000   0.4000000  -0.4000000), wk =   0.0320000
        k(   53) = (   0.4000000   0.4000000  -0.2000000), wk =   0.0320000
        k(   54) = (   0.4000000  -0.4000000   0.0000000), wk =   0.0320000
        k(   55) = (   0.4000000  -0.4000000   0.2000000), wk =   0.0320000
        k(   56) = (   0.4000000  -0.4000000   0.4000000), wk =   0.0320000
        k(   57) = (   0.4000000  -0.4000000  -0.4000000), wk =   0.0320000
        k(   58) = (   0.4000000  -0.4000000  -0.2000000), wk =   0.0320000
        k(   59) = (   0.4000000  -0.2000000   0.0000000), wk =   0.0320000
        k(   60) = (   0.4000000  -0.2000000   0.2000000), wk =   0.0320000
        k(   61) = (   0.4000000  -0.2000000   0.4000000), wk =   0.0320000
        k(   62) = (   0.4000000  -0.2000000  -0.4000000), wk =   0.0320000
        k(   63) = (   0.4000000  -0.2000000  -0.2000000), wk =   0.0320000

     Dense  grid:    68051 G-vectors     FFT dimensions: (  54,  54,  54)

     Estimated max dynamical RAM per process >      29.22 MB

     Estimated total dynamical RAM >     467.47 MB

     Initial potential from superposition of free atoms

     starting charge   63.99678, renormalised to   64.00000
     Starting wfcs are   36 randomized atomic wfcs +    2 random wfcs

     total cpu time spent up to now is        2.2 secs

     Self-consistent Calculation

     iteration #  1     ecut=   100.00 Ry     beta= 0.50
     Davidson diagonalization with overlap
     ethr =  1.00E-02,  avg # of iterations =  4.0

     total cpu time spent up to now is       11.1 secs

     total energy              =    -608.03223956 Ry
     estimated scf accuracy    <       1.57336964 Ry

     iteration #  2     ecut=   100.00 Ry     beta= 0.50
     Davidson diagonalization with overlap
     ethr =  2.46E-03,  avg # of iterations =  2.2

     total cpu time spent up to now is       15.2 secs

     total energy              =    -608.48016584 Ry
     estimated scf accuracy    <       0.24132896 Ry

     iteration #  3     ecut=   100.00 Ry     beta= 0.50
     Davidson diagonalization with overlap
     ethr =  3.77E-04,  avg # of iterations =  2.2

     total cpu time spent up to now is       20.3 secs

     total energy              =    -608.51529458 Ry
     estimated scf accuracy    <       0.01286812 Ry

     iteration #  4     ecut=   100.00 Ry     beta= 0.50
     Davidson diagonalization with overlap
     ethr =  2.01E-05,  avg # of iterations =  4.1

     total cpu time spent up to now is       26.0 secs

     total energy              =    -608.51591804 Ry
     estimated scf accuracy    <       0.00171225 Ry

     iteration #  5     ecut=   100.00 Ry     beta= 0.50
     Davidson diagonalization with overlap
     ethr =  2.68E-06,  avg # of iterations =  3.9

     total cpu time spent up to now is       31.5 secs

     total energy              =    -608.51631878 Ry
     estimated scf accuracy    <       0.00005206 Ry

     iteration #  6     ecut=   100.00 Ry     beta= 0.50
     Davidson diagonalization with overlap
     ethr =  8.13E-08,  avg # of iterations =  2.1

     total cpu time spent up to now is       36.5 secs

     total energy              =    -608.51633117 Ry
     estimated scf accuracy    <       0.00000150 Ry

     iteration #  7     ecut=   100.00 Ry     beta= 0.50
     Davidson diagonalization with overlap
     ethr =  2.35E-09,  avg # of iterations =  2.9

     total cpu time spent up to now is       41.5 secs

     total energy              =    -608.51633010 Ry
     estimated scf accuracy    <       0.00000321 Ry

     iteration #  8     ecut=   100.00 Ry     beta= 0.50
     Davidson diagonalization with overlap
     ethr =  2.35E-09,  avg # of iterations =  2.5

     total cpu time spent up to now is       45.9 secs

     End of self-consistent calculation

          k = 0.0000 0.0000 0.0000 (  8409 PWs)   bands (ev):

   -64.2904 -64.2789 -64.2789 -64.2789 -31.1156 -31.1156 -31.1156 -31.0716
   -31.0716 -31.0716 -31.0716 -31.0716 -31.0716 -31.0431 -31.0431 -31.0431
    -9.1286  -7.5854  -7.5854  -7.5853   4.0215   4.0215   4.0215   6.7284
     6.7284   6.7284   6.7284   6.7284   6.7285   8.0632   8.0632   8.0632
    12.8379  17.2907  17.2907  18.0836  18.0836  18.0836

          k = 0.0000 0.0000 0.2000 (  8501 PWs)   bands (ev):

   -64.2893 -64.2800 -64.2789 -64.2789 -31.1114 -31.1114 -31.1095 -31.0758
   -31.0758 -31.0723 -31.0723 -31.0689 -31.0689 -31.0508 -31.0458 -31.0458
    -8.9846  -7.7348  -7.5636  -7.5636   4.2128   4.2128   4.2479   6.3644
     6.3644   6.5784   6.5784   6.8368   6.8368   7.3531   7.9122   7.9122
    13.6615  17.6208  17.8675  17.8675  17.9372  18.6672

          k = 0.0000 0.0000 0.4000 (  8542 PWs)   bands (ev):

   -64.2864 -64.2829 -64.2789 -64.2789 -31.1003 -31.1003 -31.0927 -31.0868
   -31.0868 -31.0735 -31.0735 -31.0703 -31.0617 -31.0617 -31.0529 -31.0529
    -8.6035  -8.1253  -7.5280  -7.5280   4.7601   4.7601   4.9403   5.5608
     5.5608   6.0583   6.3469   6.3469   7.1366   7.1366   7.5447   7.5447
    15.3077  16.9480  18.6064  19.1278  19.1278  19.9457

          k = 0.0000 0.2000 0.0000 (  8501 PWs)   bands (ev):

   -64.2893 -64.2800 -64.2789 -64.2789 -31.1114 -31.1114 -31.1095 -31.0758
   -31.0758 -31.0723 -31.0723 -31.0689 -31.0689 -31.0508 -31.0458 -31.0458
    -8.9846  -7.7348  -7.5636  -7.5635   4.2128   4.2128   4.2479   6.3644
     6.3644   6.5783   6.5784   6.8368   6.8368   7.3531   7.9122   7.9122
    13.6615  17.6208  17.8675  17.8675  17.9372  18.6672

          k = 0.0000 0.2000 0.2000 (  8512 PWs)   bands (ev):

   -64.2883 -64.2799 -64.2799 -64.2790 -31.1080 -31.1080 -31.1073 -31.0847
   -31.0729 -31.0729 -31.0682 -31.0682 -31.0670 -31.0618 -31.0486 -31.0439
    -8.8483  -7.6962  -7.6962  -7.5568   4.3404   4.3404   4.4003   5.7445
     6.4888   6.4888   6.7057   6.7559   6.7559   6.8624   7.7349   7.9490
    14.2550  18.0103  18.1463  18.3983  18.3983  19.3507

          k = 0.0000 0.2000 0.4000 (  8538 PWs)   bands (ev):

   -64.2857 -64.2825 -64.2796 -64.2793 -31.1033 -31.0972 -31.0966 -31.0953
   -31.0835 -31.0800 -31.0663 -31.0654 -31.0651 -31.0584 -31.0561 -31.0487
    -8.4905  -8.0489  -7.6163  -7.5624   4.6046   4.8051   4.9353   5.0638
     5.6579   5.7140   6.6971   6.8173   6.8340   7.1835   7.3062   7.6583
    15.6414  17.2265  18.7471  18.9614  19.1571  19.2684

          k = 0.0000 0.2000-0.4000 (  8538 PWs)   bands (ev):

   -64.2857 -64.2825 -64.2796 -64.2793 -31.1033 -31.0972 -31.0966 -31.0953
   -31.0835 -31.0800 -31.0663 -31.0654 -31.0651 -31.0584 -31.0561 -31.0487
    -8.4905  -8.0489  -7.6163  -7.5624   4.6046   4.8051   4.9353   5.0638
     5.6579   5.7140   6.6971   6.8173   6.8340   7.1835   7.3062   7.6583
    15.6414  17.2265  18.7471  18.9615  19.1571  19.2684

          k = 0.0000 0.2000-0.2000 (  8512 PWs)   bands (ev):

   -64.2883 -64.2799 -64.2799 -64.2790 -31.1080 -31.1080 -31.1073 -31.0847
   -31.0729 -31.0729 -31.0682 -31.0682 -31.0670 -31.0618 -31.0486 -31.0439
    -8.8483  -7.6962  -7.6962  -7.5568   4.3404   4.3404   4.4003   5.7445
     6.4888   6.4888   6.7057   6.7559   6.7559   6.8624   7.7349   7.9490
    14.2550  18.0103  18.1463  18.3983  18.3983  19.3508

          k = 0.0000 0.4000 0.0000 (  8542 PWs)   bands (ev):

   -64.2864 -64.2829 -64.2789 -64.2789 -31.1003 -31.1003 -31.0927 -31.0868
   -31.0868 -31.0735 -31.0735 -31.0703 -31.0617 -31.0617 -31.0529 -31.0529
    -8.6035  -8.1253  -7.5281  -7.5280   4.7601   4.7601   4.9403   5.5608
     5.5608   6.0583   6.3468   6.3469   7.1366   7.1366   7.5447   7.5447
    15.3077  16.9480  18.6064  19.1278  19.1278  19.9457

          k = 0.0000 0.4000 0.2000 (  8538 PWs)   bands (ev):

   -64.2857 -64.2825 -64.2796 -64.2793 -31.1033 -31.0972 -31.0966 -31.0953
   -31.0835 -31.0800 -31.0663 -31.0654 -31.0651 -31.0584 -31.0561 -31.0487
    -8.4905  -8.0489  -7.6163  -7.5624   4.6046   4.8051   4.9353   5.0638
     5.6579   5.7140   6.6971   6.8173   6.8340   7.1835   7.3062   7.6583
    15.6414  17.2265  18.7471  19.1571  19.2684  20.2428

          k = 0.0000 0.4000 0.4000 (  8510 PWs)   bands (ev):

   -64.2838 -64.2815 -64.2815 -64.2803 -31.1033 -31.1033 -31.1031 -31.0945
   -31.0869 -31.0750 -31.0750 -31.0645 -31.0568 -31.0549 -31.0549 -31.0480
    -8.2019  -7.8654  -7.8654  -7.6776   4.5832   4.5832   4.6169   4.9879
     5.4318   6.1434   6.1434   6.7441   7.2117   7.2690   7.2690   7.6309
    16.5379  17.7945  17.7945  18.2789  19.6317  20.0774

          k = 0.0000 0.4000-0.4000 (  8510 PWs)   bands (ev):

   -64.2838 -64.2815 -64.2815 -64.2803 -31.1033 -31.1033 -31.1031 -31.0945
   -31.0869 -31.0750 -31.0750 -31.0645 -31.0568 -31.0549 -31.0549 -31.0480
    -8.2019  -7.8654  -7.8654  -7.6776   4.5832   4.5832   4.6169   4.9879
     5.4318   6.1434   6.1434   6.7441   7.2117   7.2690   7.2690   7.6309
    16.5379  17.7945  17.7945  18.2789  19.6317  20.0773

          k = 0.0000 0.4000-0.2000 (  8538 PWs)   bands (ev):

   -64.2857 -64.2825 -64.2796 -64.2793 -31.1033 -31.0972 -31.0966 -31.0953
   -31.0835 -31.0800 -31.0663 -31.0654 -31.0651 -31.0584 -31.0561 -31.0487
    -8.4905  -8.0489  -7.6163  -7.5624   4.6046   4.8051   4.9353   5.0638
     5.6579   5.7140   6.6971   6.8173   6.8340   7.1835   7.3062   7.6583
    15.6414  17.2265  18.7471  18.9615  19.1571  19.2684

          k = 0.2000 0.0000 0.0000 (  8501 PWs)   bands (ev):

   -64.2893 -64.2800 -64.2789 -64.2789 -31.1114 -31.1114 -31.1095 -31.0758
   -31.0758 -31.0723 -31.0723 -31.0689 -31.0689 -31.0508 -31.0458 -31.0458
    -8.9846  -7.7348  -7.5636  -7.5636   4.2128   4.2128   4.2479   6.3644
     6.3644   6.5784   6.5784   6.8368   6.8368   7.3531   7.9122   7.9122
    13.6615  17.6208  17.8675  17.8675  17.9372  18.6672

          k = 0.2000 0.0000 0.2000 (  8512 PWs)   bands (ev):

   -64.2883 -64.2799 -64.2799 -64.2790 -31.1080 -31.1080 -31.1073 -31.0847
   -31.0729 -31.0729 -31.0682 -31.0682 -31.0670 -31.0618 -31.0486 -31.0439
    -8.8483  -7.6962  -7.6961  -7.5568   4.3404   4.3404   4.4003   5.7445
     6.4888   6.4889   6.7057   6.7559   6.7559   6.8624   7.7349   7.9490
    14.2550  18.0103  18.1462  18.1463  18.3983  18.3983

          k = 0.2000 0.0000 0.4000 (  8538 PWs)   bands (ev):

   -64.2857 -64.2825 -64.2796 -64.2793 -31.1033 -31.0972 -31.0966 -31.0953
   -31.0835 -31.0800 -31.0663 -31.0654 -31.0651 -31.0584 -31.0561 -31.0487
    -8.4905  -8.0489  -7.6163  -7.5624   4.6046   4.8051   4.9353   5.0638
     5.6579   5.7140   6.6971   6.8173   6.8340   7.1835   7.3062   7.6583
    15.6414  17.2265  18.7471  19.1571  19.2684  20.2432

          k = 0.2000 0.0000-0.4000 (  8538 PWs)   bands (ev):

   -64.2857 -64.2825 -64.2796 -64.2793 -31.1033 -31.0972 -31.0966 -31.0953
   -31.0835 -31.0800 -31.0663 -31.0654 -31.0651 -31.0584 -31.0561 -31.0487
    -8.4905  -8.0489  -7.6163  -7.5624   4.6046   4.8051   4.9353   5.0638
     5.6579   5.7140   6.6971   6.8173   6.8340   7.1835   7.3062   7.6583
    15.6414  17.2265  18.7471  18.9614  19.1571  19.2684

          k = 0.2000 0.0000-0.2000 (  8512 PWs)   bands (ev):

   -64.2883 -64.2799 -64.2799 -64.2790 -31.1080 -31.1080 -31.1073 -31.0847
   -31.0729 -31.0729 -31.0682 -31.0682 -31.0670 -31.0618 -31.0486 -31.0439
    -8.8483  -7.6962  -7.6961  -7.5568   4.3404   4.3404   4.4003   5.7445
     6.4888   6.4889   6.7057   6.7559   6.7559   6.8624   7.7349   7.9490
    14.2550  18.0103  18.1462  18.1463  18.3983  18.3983

          k = 0.2000 0.2000 0.0000 (  8512 PWs)   bands (ev):

   -64.2883 -64.2799 -64.2799 -64.2790 -31.1080 -31.1080 -31.1073 -31.0847
   -31.0729 -31.0729 -31.0682 -31.0682 -31.0670 -31.0618 -31.0486 -31.0439
    -8.8483  -7.6962  -7.6961  -7.5568   4.3404   4.3404   4.4003   5.7445
     6.4888   6.4889   6.7057   6.7559   6.7559   6.8624   7.7349   7.9490
    14.2550  18.0103  18.1463  18.1463  18.3983  18.3983

          k = 0.2000 0.2000 0.2000 (  8517 PWs)   bands (ev):

   -64.2874 -64.2799 -64.2799 -64.2799 -31.1085 -31.1085 -31.1085 -31.0765
   -31.0764 -31.0764 -31.0728 -31.0648 -31.0648 -31.0648 -31.0461 -31.0461
    -8.7203  -7.6719  -7.6719  -7.6718   4.3531   4.3531   4.3531   6.1068
     6.1091   6.1092   6.1092   6.9532   6.9533   6.9533   7.8301   7.8301
    14.6515  17.9659  17.9659  17.9659  19.2158  19.2158

          k = 0.2000 0.2000 0.4000 (  8510 PWs)   bands (ev):

   -64.2851 -64.2822 -64.2799 -64.2799 -31.1096 -31.1096 -31.1041 -31.0906
   -31.0789 -31.0789 -31.0623 -31.0623 -31.0616 -31.0590 -31.0518 -31.0499
    -8.3874  -7.9848  -7.6322  -7.6321   4.3411   4.3411   4.5446   5.1844
     5.8452   5.8453   6.8372   6.9496   6.9497   7.2024   7.5215   7.5360
    15.7320  17.1039  18.2408  18.2408  19.4441  20.0339

          k = 0.2000 0.2000-0.4000 (  8510 PWs)   bands (ev):

   -64.2851 -64.2822 -64.2799 -64.2799 -31.1096 -31.1096 -31.1041 -31.0906
   -31.0789 -31.0789 -31.0623 -31.0623 -31.0616 -31.0590 -31.0518 -31.0499
    -8.3874  -7.9848  -7.6322  -7.6321   4.3411   4.3411   4.5446   5.1844
     5.8452   5.8453   6.8372   6.9496   6.9497   7.2024   7.5215   7.5360
    15.7320  17.1039  18.2408  18.2408  19.4441  20.0339

          k = 0.2000 0.2000-0.2000 (  8517 PWs)   bands (ev):

   -64.2874 -64.2799 -64.2799 -64.2799 -31.1085 -31.1085 -31.1085 -31.0765
   -31.0764 -31.0764 -31.0728 -31.0648 -31.0648 -31.0648 -31.0461 -31.0461
    -8.7203  -7.6719  -7.6719  -7.6718   4.3531   4.3531   4.3531   6.1068
     6.1091   6.1092   6.1092   6.9532   6.9533   6.9533   7.8301   7.8301
    14.6515  17.9659  17.9659  17.9659  19.2158  19.2158

          k = 0.2000 0.4000 0.0000 (  8538 PWs)   bands (ev):

   -64.2857 -64.2825 -64.2796 -64.2793 -31.1033 -31.0972 -31.0966 -31.0953
   -31.0835 -31.0800 -31.0663 -31.0654 -31.0651 -31.0584 -31.0561 -31.0487
    -8.4905  -8.0489  -7.6163  -7.5624   4.6046   4.8051   4.9353   5.0638
     5.6579   5.7140   6.6971   6.8173   6.8340   7.1835   7.3062   7.6583
    15.6414  17.2265  18.7471  19.1571  19.2684  20.2428

          k = 0.2000 0.4000 0.2000 (  8510 PWs)   bands (ev):

   -64.2851 -64.2822 -64.2799 -64.2799 -31.1096 -31.1096 -31.1041 -31.0906
   -31.0789 -31.0789 -31.0623 -31.0623 -31.0616 -31.0590 -31.0518 -31.0499
    -8.3874  -7.9848  -7.6322  -7.6321   4.3411   4.3411   4.5446   5.1844
     5.8452   5.8453   6.8372   6.9496   6.9497   7.2024   7.5215   7.5360
    15.7320  17.1039  18.2408  18.2408  19.4441  20.0339

          k = 0.2000 0.4000 0.4000 (  8499 PWs)   bands (ev):

   -64.2835 -64.2815 -64.2815 -64.2806 -31.1157 -31.1135 -31.1135 -31.1059
   -31.0720 -31.0655 -31.0655 -31.0567 -31.0560 -31.0548 -31.0548 -31.0488
    -8.1287  -7.8373  -7.8373  -7.7009   4.0448   4.1381   4.1381   4.4786
     6.1921   6.6032   6.6032   7.1653   7.2498   7.2895   7.2895   7.5890
    16.2058  17.1556  17.1556  17.5297  20.1205  20.3550

          k = 0.2000 0.4000-0.4000 (  8499 PWs)   bands (ev):

   -64.2835 -64.2815 -64.2815 -64.2806 -31.1157 -31.1135 -31.1135 -31.1059
   -31.0720 -31.0655 -31.0655 -31.0567 -31.0560 -31.0548 -31.0548 -31.0488
    -8.1287  -7.8373  -7.8373  -7.7009   4.0448   4.1381   4.1381   4.4786
     6.1921   6.6032   6.6032   7.1653   7.2498   7.2895   7.2895   7.5890
    16.2058  17.1556  17.1556  17.5297  20.1207  20.3554

          k = 0.2000 0.4000-0.2000 (  8510 PWs)   bands (ev):

   -64.2851 -64.2822 -64.2799 -64.2799 -31.1096 -31.1096 -31.1041 -31.0906
   -31.0789 -31.0789 -31.0623 -31.0623 -31.0616 -31.0590 -31.0518 -31.0499
    -8.3874  -7.9848  -7.6322  -7.6321   4.3411   4.3411   4.5446   5.1844
     5.8452   5.8453   6.8372   6.9496   6.9497   7.2024   7.5215   7.5360
    15.7320  17.1039  18.2408  18.2408  19.4441  20.0339

          k = 0.2000-0.4000 0.0000 (  8538 PWs)   bands (ev):

   -64.2857 -64.2825 -64.2796 -64.2793 -31.1033 -31.0972 -31.0966 -31.0953
   -31.0835 -31.0800 -31.0663 -31.0654 -31.0651 -31.0584 -31.0561 -31.0487
    -8.4905  -8.0489  -7.6163  -7.5624   4.6046   4.8051   4.9353   5.0638
     5.6579   5.7140   6.6971   6.8173   6.8340   7.1835   7.3062   7.6583
    15.6414  17.2265  18.7471  18.9615  19.1571  19.2684

          k = 0.2000-0.4000 0.2000 (  8510 PWs)   bands (ev):

   -64.2851 -64.2822 -64.2799 -64.2799 -31.1096 -31.1096 -31.1041 -31.0906
   -31.0789 -31.0789 -31.0623 -31.0623 -31.0616 -31.0590 -31.0518 -31.0499
    -8.3874  -7.9848  -7.6322  -7.6321   4.3411   4.3411   4.5446   5.1844
     5.8452   5.8453   6.8372   6.9496   6.9497   7.2024   7.5215   7.5360
    15.7320  17.1039  18.2408  18.2408  19.4441  20.0339

          k = 0.2000-0.4000 0.4000 (  8499 PWs)   bands (ev):

   -64.2835 -64.2815 -64.2815 -64.2806 -31.1157 -31.1135 -31.1135 -31.1059
   -31.0720 -31.0655 -31.0655 -31.0567 -31.0560 -31.0548 -31.0548 -31.0488
    -8.1287  -7.8373  -7.8373  -7.7009   4.0448   4.1381   4.1381   4.4786
     6.1921   6.6032   6.6032   7.1653   7.2498   7.2895   7.2895   7.5890
    16.2058  17.1556  17.1556  17.5297  20.1206  20.3550

          k = 0.2000-0.4000-0.4000 (  8499 PWs)   bands (ev):

   -64.2835 -64.2815 -64.2815 -64.2806 -31.1157 -31.1135 -31.1135 -31.1059
   -31.0720 -31.0655 -31.0655 -31.0567 -31.0560 -31.0548 -31.0548 -31.0488
    -8.1287  -7.8373  -7.8373  -7.7009   4.0448   4.1381   4.1381   4.4786
     6.1921   6.6032   6.6032   7.1653   7.2498   7.2895   7.2895   7.5890
    16.2058  17.1556  17.1556  17.5297  20.1206  20.3552

          k = 0.2000-0.4000-0.2000 (  8510 PWs)   bands (ev):

   -64.2851 -64.2822 -64.2799 -64.2799 -31.1096 -31.1096 -31.1041 -31.0906
   -31.0789 -31.0789 -31.0623 -31.0623 -31.0616 -31.0590 -31.0518 -31.0499
    -8.3874  -7.9848  -7.6322  -7.6321   4.3411   4.3411   4.5446   5.1844
     5.8452   5.8453   6.8372   6.9496   6.9497   7.2024   7.5215   7.5360
    15.7320  17.1039  18.2408  18.2408  19.4441  20.0339

          k = 0.2000-0.2000 0.0000 (  8512 PWs)   bands (ev):

   -64.2883 -64.2799 -64.2799 -64.2790 -31.1080 -31.1080 -31.1073 -31.0847
   -31.0729 -31.0729 -31.0682 -31.0682 -31.0670 -31.0618 -31.0486 -31.0439
    -8.8483  -7.6962  -7.6961  -7.5568   4.3404   4.3404   4.4003   5.7445
     6.4888   6.4889   6.7057   6.7559   6.7559   6.8624   7.7349   7.9490
    14.2550  18.0103  18.1463  18.1463  18.3983  18.3983

          k = 0.2000-0.2000 0.2000 (  8517 PWs)   bands (ev):

   -64.2874 -64.2799 -64.2799 -64.2799 -31.1085 -31.1085 -31.1085 -31.0765
   -31.0764 -31.0764 -31.0728 -31.0648 -31.0648 -31.0648 -31.0461 -31.0461
    -8.7203  -7.6719  -7.6719  -7.6718   4.3531   4.3531   4.3531   6.1068
     6.1091   6.1092   6.1092   6.9532   6.9533   6.9533   7.8301   7.8301
    14.6515  17.9659  17.9659  17.9659  19.2158  19.2158

          k = 0.2000-0.2000 0.4000 (  8510 PWs)   bands (ev):

   -64.2851 -64.2822 -64.2799 -64.2799 -31.1096 -31.1096 -31.1041 -31.0906
   -31.0789 -31.0789 -31.0623 -31.0623 -31.0616 -31.0590 -31.0518 -31.0499
    -8.3874  -7.9848  -7.6322  -7.6321   4.3411   4.3411   4.5446   5.1844
     5.8452   5.8453   6.8372   6.9496   6.9497   7.2025   7.5215   7.5360
    15.7320  17.1039  18.2408  18.2408  19.4441  20.0339

          k = 0.2000-0.2000-0.4000 (  8510 PWs)   bands (ev):

   -64.2851 -64.2822 -64.2799 -64.2799 -31.1096 -31.1096 -31.1041 -31.0906
   -31.0789 -31.0789 -31.0623 -31.0623 -31.0616 -31.0590 -31.0518 -31.0499
    -8.3874  -7.9848  -7.6322  -7.6321   4.3411   4.3411   4.5446   5.1844
     5.8452   5.8453   6.8372   6.9496   6.9497   7.2025   7.5215   7.5360
    15.7320  17.1039  18.2408  18.2408  19.4441  20.0339

          k = 0.2000-0.2000-0.2000 (  8517 PWs)   bands (ev):

   -64.2874 -64.2799 -64.2799 -64.2799 -31.1085 -31.1085 -31.1085 -31.0765
   -31.0764 -31.0764 -31.0728 -31.0648 -31.0648 -31.0648 -31.0461 -31.0461
    -8.7203  -7.6719  -7.6719  -7.6718   4.3531   4.3531   4.3531   6.1068
     6.1091   6.1092   6.1092   6.9532   6.9533   6.9533   7.8301   7.8301
    14.6515  17.9659  17.9659  17.9659  19.2158  19.2158

          k = 0.4000 0.0000 0.0000 (  8542 PWs)   bands (ev):

   -64.2864 -64.2829 -64.2789 -64.2789 -31.1003 -31.1003 -31.0927 -31.0868
   -31.0868 -31.0735 -31.0735 -31.0703 -31.0617 -31.0617 -31.0529 -31.0529
    -8.6035  -8.1253  -7.5280  -7.5280   4.7601   4.7601   4.9403   5.5608
     5.5608   6.0583   6.3469   6.3469   7.1366   7.1366   7.5447   7.5447
    15.3077  16.9480  18.6064  19.1278  19.9456  19.9457

          k = 0.4000 0.0000 0.2000 (  8538 PWs)   bands (ev):

   -64.2857 -64.2825 -64.2796 -64.2793 -31.1033 -31.0972 -31.0966 -31.0953
   -31.0835 -31.0800 -31.0663 -31.0654 -31.0651 -31.0584 -31.0561 -31.0487
    -8.4905  -8.0489  -7.6163  -7.5624   4.6046   4.8051   4.9353   5.0638
     5.6579   5.7140   6.6971   6.8173   6.8340   7.1835   7.3062   7.6583
    15.6414  17.2265  18.7471  18.9614  19.1571  19.2684

          k = 0.4000 0.0000 0.4000 (  8510 PWs)   bands (ev):

   -64.2838 -64.2815 -64.2815 -64.2803 -31.1033 -31.1032 -31.1031 -31.0945
   -31.0869 -31.0750 -31.0750 -31.0645 -31.0568 -31.0549 -31.0549 -31.0480
    -8.2019  -7.8655  -7.8653  -7.6776   4.5832   4.5833   4.6169   4.9879
     5.4318   6.1433   6.1434   6.7441   7.2117   7.2689   7.2690   7.6309
    16.5379  17.7945  17.7945  18.2789  19.6316  19.6318

          k = 0.4000 0.0000-0.4000 (  8510 PWs)   bands (ev):

   -64.2838 -64.2815 -64.2815 -64.2803 -31.1033 -31.1032 -31.1031 -31.0945
   -31.0869 -31.0750 -31.0750 -31.0645 -31.0568 -31.0549 -31.0549 -31.0480
    -8.2019  -7.8655  -7.8653  -7.6776   4.5832   4.5833   4.6169   4.9879
     5.4318   6.1433   6.1434   6.7441   7.2117   7.2689   7.2690   7.6309
    16.5379  17.7945  17.7945  18.2789  19.6318  20.0768

          k = 0.4000 0.0000-0.2000 (  8538 PWs)   bands (ev):

   -64.2857 -64.2825 -64.2796 -64.2793 -31.1033 -31.0972 -31.0966 -31.0953
   -31.0835 -31.0800 -31.0663 -31.0654 -31.0651 -31.0584 -31.0561 -31.0487
    -8.4905  -8.0489  -7.6163  -7.5624   4.6046   4.8051   4.9353   5.0638
     5.6579   5.7140   6.6971   6.8173   6.8340   7.1835   7.3062   7.6583
    15.6414  17.2265  18.7471  18.9615  19.1571  19.2684

          k = 0.4000 0.2000 0.0000 (  8538 PWs)   bands (ev):

   -64.2857 -64.2825 -64.2796 -64.2793 -31.1033 -31.0972 -31.0966 -31.0953
   -31.0835 -31.0800 -31.0663 -31.0654 -31.0651 -31.0584 -31.0561 -31.0487
    -8.4905  -8.0489  -7.6163  -7.5624   4.6046   4.8051   4.9353   5.0638
     5.6579   5.7140   6.6971   6.8173   6.8340   7.1835   7.3062   7.6583
    15.6414  17.2265  18.7471  19.1572  19.2683  20.2428

          k = 0.4000 0.2000 0.2000 (  8510 PWs)   bands (ev):

   -64.2851 -64.2822 -64.2799 -64.2799 -31.1096 -31.1096 -31.1041 -31.0906
   -31.0789 -31.0789 -31.0623 -31.0623 -31.0616 -31.0590 -31.0518 -31.0499
    -8.3874  -7.9848  -7.6321  -7.6321   4.3411   4.3411   4.5446   5.1844
     5.8453   5.8453   6.8372   6.9496   6.9496   7.2024   7.5215   7.5360
    15.7320  17.1039  18.2408  18.2408  19.4441  20.0339

          k = 0.4000 0.2000 0.4000 (  8499 PWs)   bands (ev):

   -64.2835 -64.2815 -64.2815 -64.2806 -31.1157 -31.1135 -31.1135 -31.1059
   -31.0720 -31.0655 -31.0654 -31.0567 -31.0560 -31.0548 -31.0548 -31.0488
    -8.1287  -7.8374  -7.8373  -7.7009   4.0448   4.1381   4.1381   4.4786
     6.1921   6.6031   6.6032   7.1653   7.2498   7.2895   7.2896   7.5890
    16.2058  17.1556  17.1556  17.5297  20.1206  20.3539

          k = 0.4000 0.2000-0.4000 (  8499 PWs)   bands (ev):

   -64.2835 -64.2815 -64.2815 -64.2806 -31.1157 -31.1135 -31.1135 -31.1059
   -31.0720 -31.0655 -31.0654 -31.0567 -31.0560 -31.0548 -31.0548 -31.0488
    -8.1287  -7.8374  -7.8373  -7.7009   4.0448   4.1381   4.1381   4.4786
     6.1921   6.6031   6.6032   7.1653   7.2498   7.2895   7.2896   7.5890
    16.2058  17.1556  17.1556  17.5297  20.1206  20.3554

          k = 0.4000 0.2000-0.2000 (  8510 PWs)   bands (ev):

   -64.2851 -64.2822 -64.2799 -64.2799 -31.1096 -31.1096 -31.1041 -31.0906
   -31.0789 -31.0789 -31.0623 -31.0623 -31.0616 -31.0590 -31.0518 -31.0499
    -8.3874  -7.9848  -7.6321  -7.6321   4.3411   4.3411   4.5446   5.1844
     5.8453   5.8453   6.8372   6.9496   6.9496   7.2024   7.5215   7.5360
    15.7320  17.1039  18.2408  18.2408  19.4441  20.0339

          k = 0.4000 0.4000 0.0000 (  8510 PWs)   bands (ev):

   -64.2838 -64.2815 -64.2815 -64.2803 -31.1033 -31.1032 -31.1031 -31.0945
   -31.0869 -31.0750 -31.0750 -31.0645 -31.0568 -31.0549 -31.0549 -31.0480
    -8.2019  -7.8654  -7.8654  -7.6776   4.5832   4.5833   4.6169   4.9879
     5.4318   6.1434   6.1434   6.7441   7.2117   7.2690   7.2690   7.6309
    16.5379  17.7945  17.7945  18.2789  19.6317  20.0773

          k = 0.4000 0.4000 0.2000 (  8499 PWs)   bands (ev):

   -64.2835 -64.2815 -64.2815 -64.2806 -31.1157 -31.1135 -31.1135 -31.1059
   -31.0720 -31.0655 -31.0655 -31.0567 -31.0560 -31.0548 -31.0548 -31.0488
    -8.1287  -7.8374  -7.8373  -7.7009   4.0448   4.1381   4.1381   4.4786
     6.1921   6.6032   6.6032   7.1653   7.2498   7.2895   7.2895   7.5890
    16.2058  17.1556  17.1556  17.5297  20.1207  20.3553

          k = 0.4000 0.4000 0.4000 (  8465 PWs)   bands (ev):

   -64.2826 -64.2815 -64.2815 -64.2815 -31.1246 -31.1246 -31.1246 -31.1205
   -31.0565 -31.0565 -31.0565 -31.0537 -31.0537 -31.0537 -31.0510 -31.0510
    -7.9569  -7.7913  -7.7913  -7.7912   3.6472   3.6473   3.6473   3.8283
     7.0930   7.0931   7.0931   7.3514   7.3514   7.3515   7.4810   7.4810
    15.9512  16.4583  16.4583  16.4583  20.5584  20.5585

          k = 0.4000 0.4000-0.4000 (  8465 PWs)   bands (ev):

   -64.2826 -64.2815 -64.2815 -64.2815 -31.1246 -31.1246 -31.1246 -31.1205
   -31.0565 -31.0565 -31.0565 -31.0537 -31.0537 -31.0537 -31.0510 -31.0510
    -7.9569  -7.7913  -7.7913  -7.7912   3.6472   3.6473   3.6473   3.8283
     7.0930   7.0931   7.0931   7.3514   7.3514   7.3515   7.4810   7.4810
    15.9512  16.4583  16.4583  16.4583  20.5584  20.5585

          k = 0.4000 0.4000-0.2000 (  8499 PWs)   bands (ev):

   -64.2835 -64.2815 -64.2815 -64.2806 -31.1157 -31.1135 -31.1135 -31.1059
   -31.0720 -31.0655 -31.0655 -31.0567 -31.0560 -31.0548 -31.0548 -31.0488
    -8.1287  -7.8374  -7.8373  -7.7009   4.0448   4.1381   4.1381   4.4786
     6.1921   6.6032   6.6032   7.1653   7.2498   7.2895   7.2895   7.5890
    16.2058  17.1556  17.1556  17.5297  20.1206  20.3554

          k = 0.4000-0.4000 0.0000 (  8510 PWs)   bands (ev):

   -64.2838 -64.2815 -64.2815 -64.2803 -31.1033 -31.1032 -31.1031 -31.0945
   -31.0869 -31.0750 -31.0750 -31.0645 -31.0568 -31.0549 -31.0549 -31.0480
    -8.2019  -7.8654  -7.8654  -7.6776   4.5832   4.5833   4.6169   4.9879
     5.4318   6.1434   6.1434   6.7441   7.2117   7.2690   7.2690   7.6309
    16.5379  17.7945  17.7945  18.2789  19.6319  20.0774

          k = 0.4000-0.4000 0.2000 (  8499 PWs)   bands (ev):

   -64.2835 -64.2815 -64.2815 -64.2806 -31.1157 -31.1135 -31.1135 -31.1059
   -31.0720 -31.0655 -31.0655 -31.0567 -31.0560 -31.0548 -31.0548 -31.0488
    -8.1287  -7.8374  -7.8373  -7.7009   4.0448   4.1381   4.1381   4.4786
     6.1921   6.6032   6.6032   7.1653   7.2498   7.2895   7.2895   7.5890
    16.2058  17.1556  17.1556  17.5297  20.1209  20.3554

          k = 0.4000-0.4000 0.4000 (  8465 PWs)   bands (ev):

   -64.2826 -64.2815 -64.2815 -64.2815 -31.1246 -31.1246 -31.1246 -31.1205
   -31.0565 -31.0565 -31.0565 -31.0537 -31.0537 -31.0537 -31.0510 -31.0510
    -7.9569  -7.7913  -7.7913  -7.7912   3.6472   3.6473   3.6473   3.8283
     7.0930   7.0931   7.0931   7.3514   7.3514   7.3515   7.4810   7.4810
    15.9512  16.4583  16.4583  16.4583  20.5584  20.5585

          k = 0.4000-0.4000-0.4000 (  8465 PWs)   bands (ev):

   -64.2826 -64.2815 -64.2815 -64.2815 -31.1246 -31.1246 -31.1246 -31.1205
   -31.0565 -31.0565 -31.0565 -31.0537 -31.0537 -31.0537 -31.0510 -31.0510
    -7.9569  -7.7913  -7.7913  -7.7912   3.6472   3.6473   3.6473   3.8283
     7.0930   7.0931   7.0931   7.3514   7.3514   7.3515   7.4810   7.4810
    15.9512  16.4583  16.4583  16.4583  20.5584  20.5585

          k = 0.4000-0.4000-0.2000 (  8499 PWs)   bands (ev):

   -64.2835 -64.2815 -64.2815 -64.2806 -31.1157 -31.1135 -31.1135 -31.1059
   -31.0720 -31.0655 -31.0655 -31.0567 -31.0560 -31.0548 -31.0548 -31.0488
    -8.1287  -7.8374  -7.8373  -7.7009   4.0448   4.1381   4.1381   4.4786
     6.1921   6.6032   6.6032   7.1653   7.2498   7.2895   7.2895   7.5890
    16.2058  17.1556  17.1556  17.5297  20.1205  20.3553

          k = 0.4000-0.2000 0.0000 (  8538 PWs)   bands (ev):

   -64.2857 -64.2825 -64.2796 -64.2793 -31.1033 -31.0972 -31.0966 -31.0953
   -31.0835 -31.0800 -31.0663 -31.0654 -31.0651 -31.0584 -31.0561 -31.0487
    -8.4905  -8.0489  -7.6163  -7.5624   4.6046   4.8051   4.9353   5.0638
     5.6579   5.7140   6.6971   6.8173   6.8340   7.1835   7.3062   7.6583
    15.6414  17.2265  18.7471  18.9614  19.1571  19.2684

          k = 0.4000-0.2000 0.2000 (  8510 PWs)   bands (ev):

   -64.2851 -64.2822 -64.2799 -64.2799 -31.1096 -31.1096 -31.1041 -31.0906
   -31.0789 -31.0789 -31.0623 -31.0623 -31.0616 -31.0590 -31.0518 -31.0499
    -8.3874  -7.9848  -7.6321  -7.6321   4.3411   4.3411   4.5446   5.1844
     5.8453   5.8453   6.8372   6.9496   6.9496   7.2024   7.5215   7.5360
    15.7320  17.1039  18.2408  18.2408  19.4441  20.0339

          k = 0.4000-0.2000 0.4000 (  8499 PWs)   bands (ev):

   -64.2835 -64.2815 -64.2815 -64.2806 -31.1157 -31.1135 -31.1135 -31.1059
   -31.0720 -31.0655 -31.0654 -31.0567 -31.0560 -31.0548 -31.0548 -31.0488
    -8.1287  -7.8374  -7.8373  -7.7009   4.0448   4.1381   4.1381   4.4786
     6.1921   6.6031   6.6032   7.1653   7.2498   7.2895   7.2896   7.5890
    16.2058  17.1556  17.1556  17.5297  20.1206  20.3554

          k = 0.4000-0.2000-0.4000 (  8499 PWs)   bands (ev):

   -64.2835 -64.2815 -64.2815 -64.2806 -31.1157 -31.1135 -31.1135 -31.1059
   -31.0720 -31.0655 -31.0654 -31.0567 -31.0560 -31.0548 -31.0548 -31.0488
    -8.1287  -7.8374  -7.8373  -7.7009   4.0448   4.1381   4.1381   4.4786
     6.1921   6.6031   6.6032   7.1653   7.2498   7.2895   7.2896   7.5890
    16.2058  17.1556  17.1556  17.5297  20.1210  20.3534

          k = 0.4000-0.2000-0.2000 (  8510 PWs)   bands (ev):

   -64.2851 -64.2822 -64.2799 -64.2799 -31.1096 -31.1096 -31.1041 -31.0906
   -31.0789 -31.0789 -31.0623 -31.0623 -31.0616 -31.0590 -31.0518 -31.0499
    -8.3874  -7.9848  -7.6321  -7.6321   4.3411   4.3411   4.5446   5.1844
     5.8453   5.8453   6.8372   6.9496   6.9496   7.2024   7.5215   7.5360
    15.7320  17.1039  18.2408  18.2408  19.4441  20.0339

     the Fermi energy is    10.0544 ev

!    total energy              =    -608.51633070 Ry
     estimated scf accuracy    <       0.00000002 Ry
     smearing contrib. (-TS)   =      -0.00000000 Ry
     internal energy E=F+TS    =    -608.51633070 Ry

     The total energy is F=E-TS. E is the sum of the following terms:
     one-electron contribution =    -297.28485513 Ry
     hartree contribution      =     166.02663794 Ry
     xc contribution           =     -97.98764698 Ry
     ewald contribution        =    -379.16241501 Ry
     DFT-D3 Dispersion         =      -0.10805152 Ry

     convergence has been achieved in   8 iterations

     Forces acting on atoms (cartesian axes, Ry/au):

     atom    1 type  1   force =     0.00000019    0.00000064   -0.00000025
     atom    2 type  1   force =     0.00000006    0.00000052   -0.00000001
     atom    3 type  1   force =    -0.00000013    0.00000001   -0.00000018
     atom    4 type  1   force =    -0.00000007   -0.00000112    0.00000051
     atom    5 type  2   force =    -0.00000020    0.00000007   -0.00000054
     atom    6 type  2   force =     0.00000009    0.00000073    0.00000016
     atom    7 type  2   force =    -0.00000012   -0.00000046    0.00000006
     atom    8 type  2   force =     0.00000019   -0.00000039    0.00000026

     Total force =     0.000002     Total SCF correction =     0.000016
     SCF correction compared to forces is large: reduce conv_thr to get better values


     Computing stress (Cartesian axis) and pressure

          total   stress  (Ry/bohr**3)                   (kbar)     P=       12.04
   0.00008183   0.00000000   0.00000000           12.04        0.00        0.00
   0.00000000   0.00008183  -0.00000000            0.00       12.04       -0.00
   0.00000000  -0.00000000   0.00008183            0.00       -0.00       12.04


     BFGS Geometry Optimization

     number of scf cycles    =   1
     number of bfgs steps    =   0

     enthalpy new            =    -608.8588812460 Ry

     new trust radius        =       0.0854837847 bohr
     new conv_thr            =       0.0000010000 Ry

     new unit-cell volume =    533.24473 a.u.^3 (    79.01872 Ang^3 )
     density =      3.38787 g/cm^3

CELL_PARAMETERS (angstrom)
   4.291179405   0.000000098   0.000000009
   0.000000098   4.291179216  -0.000000077
   0.000000009  -0.000000077   4.291179124

ATOMIC_POSITIONS (angstrom)
Mg            0.0000001048        0.0000003465       -0.0000001357
Mg            0.0000000861        2.1455898477        2.1455895155
Mg            2.1455896352        0.0000000144        2.1455894677
Mg            2.1455897137        2.1455890537        0.0000002420
O             2.1455896459        2.1455896556        2.1455892373
O             2.1455897486        0.0000004441        0.0000000888
O            -0.0000000169        2.1455893601       -0.0000000087
O             0.0000001068       -0.0000002473        2.1455897038


     NEW-OLD atomic charge density approx. for the potential
     extrapolated charge   67.52067, renormalised to   64.00000

     total cpu time spent up to now is       56.7 secs

     Self-consistent Calculation

     iteration #  1     ecut=   100.00 Ry     beta= 0.50
     Davidson diagonalization with overlap
     ethr =  1.00E-06,  avg # of iterations =  9.6

     total cpu time spent up to now is       67.2 secs

     total energy              =    -608.06956805 Ry
     estimated scf accuracy    <       0.24683207 Ry

     iteration #  2     ecut=   100.00 Ry     beta= 0.50
     Davidson diagonalization with overlap
     ethr =  3.86E-04,  avg # of iterations =  3.0

     total cpu time spent up to now is       72.5 secs

     total energy              =    -608.52106547 Ry
     estimated scf accuracy    <       0.40504079 Ry

     iteration #  3     ecut=   100.00 Ry     beta= 0.50
     Davidson diagonalization with overlap
     ethr =  3.86E-04,  avg # of iterations =  2.0

     total cpu time spent up to now is       76.1 secs

     total energy              =    -608.52014110 Ry
     estimated scf accuracy    <       0.09295173 Ry

     iteration #  4     ecut=   100.00 Ry     beta= 0.50
     Davidson diagonalization with overlap
     ethr =  1.45E-04,  avg # of iterations =  1.2

     total cpu time spent up to now is       79.2 secs

     total energy              =    -608.50584766 Ry
     estimated scf accuracy    <       0.03474595 Ry

     iteration #  5     ecut=   100.00 Ry     beta= 0.50
     Davidson diagonalization with overlap
     ethr =  5.43E-05,  avg # of iterations =  2.0

     total cpu time spent up to now is       82.8 secs

     total energy              =    -608.51019530 Ry
     estimated scf accuracy    <       0.00093343 Ry

     iteration #  6     ecut=   100.00 Ry     beta= 0.50
     Davidson diagonalization with overlap
     ethr =  1.46E-06,  avg # of iterations =  5.0

     total cpu time spent up to now is       87.1 secs

     total energy              =    -608.51034387 Ry
     estimated scf accuracy    <       0.00028662 Ry

     iteration #  7     ecut=   100.00 Ry     beta= 0.50
     Davidson diagonalization with overlap
     ethr =  4.48E-07,  avg # of iterations =  1.0

     total cpu time spent up to now is       90.3 secs

     total energy              =    -608.51017526 Ry
     estimated scf accuracy    <       0.00039065 Ry

     iteration #  8     ecut=   100.00 Ry     beta= 0.50
     Davidson diagonalization with overlap
     ethr =  4.48E-07,  avg # of iterations =  2.0

     total cpu time spent up to now is       94.1 secs

     total energy              =    -608.51019975 Ry
     estimated scf accuracy    <       0.00003317 Ry

     iteration #  9     ecut=   100.00 Ry     beta= 0.50
     Davidson diagonalization with overlap
     ethr =  5.18E-08,  avg # of iterations =  2.0

     total cpu time spent up to now is       97.7 secs

     total energy              =    -608.51020364 Ry
     estimated scf accuracy    <       0.00000212 Ry

     iteration # 10     ecut=   100.00 Ry     beta= 0.50
     Davidson diagonalization with overlap
     ethr =  3.31E-09,  avg # of iterations =  1.8

     total cpu time spent up to now is      101.0 secs

     End of self-consistent calculation

          k = 0.0000 0.0000 0.0000 (  8409 PWs)   bands (ev):

   -65.1695 -65.1609 -65.1609 -65.1608 -31.9759 -31.9759 -31.9759 -31.9411
   -31.9410 -31.9410 -31.9410 -31.9410 -31.9410 -31.9181 -31.9181 -31.9181
    -9.5330  -8.1471  -8.1471  -8.1470   3.5666   3.5666   3.5666   6.1271
     6.1272   6.1272   6.1272   6.1272   6.1272   7.3861   7.3861   7.3861
    11.6268  16.5317  16.5317  16.8031  16.8031  16.8031

          k =-0.0000 0.0000 0.1963 (  8501 PWs)   bands (ev):

   -65.1687 -65.1617 -65.1609 -65.1609 -31.9726 -31.9726 -31.9710 -31.9443
   -31.9443 -31.9415 -31.9415 -31.9388 -31.9388 -31.9242 -31.9203 -31.9203
    -9.4031  -8.2807  -8.1290  -8.1289   3.7498   3.7498   3.7719   5.7879
     5.7879   5.9851   5.9852   6.2304   6.2304   6.6857   7.2452   7.2452
    12.4564  16.6540  16.8495  17.0435  17.0435  17.3683

          k =-0.0000 0.0000 0.3925 (  8542 PWs)   bands (ev):

   -65.1665 -65.1638 -65.1609 -65.1609 -31.9638 -31.9638 -31.9575 -31.9530
   -31.9530 -31.9424 -31.9424 -31.9396 -31.9331 -31.9331 -31.9260 -31.9260
    -9.0600  -8.6305  -8.0994  -8.0993   4.2723   4.2723   4.4068   5.0323
     5.0323   5.4494   5.7666   5.7666   6.5151   6.5151   6.9004   6.9004
    14.0821  15.6877  17.7985  18.1484  18.1484  18.6035

          k =-0.0000 0.1963 0.0000 (  8501 PWs)   bands (ev):

   -65.1687 -65.1617 -65.1609 -65.1608 -31.9726 -31.9726 -31.9710 -31.9443
   -31.9443 -31.9416 -31.9415 -31.9388 -31.9388 -31.9242 -31.9203 -31.9203
    -9.4031  -8.2807  -8.1289  -8.1289   3.7498   3.7498   3.7719   5.7879
     5.7879   5.9851   5.9852   6.2304   6.2304   6.6857   7.2452   7.2452
    12.4564  16.6540  16.8495  17.0435  17.0435  17.3683

          k =-0.0000 0.1963 0.1963 (  8512 PWs)   bands (ev):

   -65.1679 -65.1616 -65.1616 -65.1609 -31.9698 -31.9698 -31.9693 -31.9513
   -31.9420 -31.9420 -31.9382 -31.9382 -31.9374 -31.9329 -31.9226 -31.9188
    -9.2806  -8.2477  -8.2476  -8.1242   3.8608   3.8608   3.9291   5.1983
     5.9063   5.9063   6.0620   6.1562   6.1562   6.2600   7.0800   7.2858
    13.0479  17.0755  17.1088  17.1089  17.3105  17.3105

          k =-0.0000 0.1963 0.3925 (  8538 PWs)   bands (ev):

   -65.1660 -65.1636 -65.1614 -65.1611 -31.9660 -31.9610 -31.9609 -31.9596
   -31.9504 -31.9473 -31.9368 -31.9360 -31.9358 -31.9305 -31.9286 -31.9227
    -8.9593  -8.5634  -8.1788  -8.1312   4.1144   4.2794   4.4396   4.5526
     5.0694   5.1782   6.1055   6.2210   6.2335   6.5653   6.6787   7.0151
    14.4187  15.9732  17.7190  17.9299  18.0908  18.2816

          k =-0.0000 0.1963-0.3925 (  8538 PWs)   bands (ev):

   -65.1660 -65.1636 -65.1614 -65.1611 -31.9660 -31.9610 -31.9609 -31.9596
   -31.9504 -31.9473 -31.9368 -31.9360 -31.9358 -31.9305 -31.9286 -31.9227
    -8.9593  -8.5634  -8.1788  -8.1312   4.1144   4.2794   4.4396   4.5526
     5.0694   5.1782   6.1055   6.2210   6.2335   6.5653   6.6787   7.0151
    14.4187  15.9732  17.7190  17.9299  18.0908  18.2816

          k =-0.0000 0.1963-0.1963 (  8512 PWs)   bands (ev):

   -65.1679 -65.1616 -65.1616 -65.1609 -31.9698 -31.9698 -31.9693 -31.9513
   -31.9420 -31.9420 -31.9382 -31.9382 -31.9374 -31.9329 -31.9226 -31.9188
    -9.2806  -8.2477  -8.2476  -8.1242   3.8608   3.8608   3.9291   5.1983
     5.9063   5.9063   6.0620   6.1562   6.1562   6.2600   7.0800   7.2858
    13.0479  17.0755  17.1088  17.1089  17.3105  17.3105

          k =-0.0000 0.3925 0.0000 (  8542 PWs)   bands (ev):

   -65.1665 -65.1638 -65.1609 -65.1608 -31.9638 -31.9638 -31.9575 -31.9530
   -31.9530 -31.9424 -31.9423 -31.9396 -31.9331 -31.9331 -31.9260 -31.9260
    -9.0600  -8.6305  -8.0994  -8.0993   4.2723   4.2723   4.4068   5.0323
     5.0323   5.4494   5.7666   5.7666   6.5151   6.5151   6.9004   6.9004
    14.0821  15.6877  17.7985  18.1484  18.1484  18.6035

          k =-0.0000 0.3925 0.1963 (  8538 PWs)   bands (ev):

   -65.1660 -65.1636 -65.1614 -65.1611 -31.9660 -31.9610 -31.9609 -31.9596
   -31.9504 -31.9473 -31.9368 -31.9360 -31.9358 -31.9305 -31.9286 -31.9227
    -8.9593  -8.5634  -8.1788  -8.1312   4.1144   4.2794   4.4396   4.5526
     5.0694   5.1782   6.1055   6.2210   6.2335   6.5653   6.6787   7.0151
    14.4187  15.9732  17.7190  17.9299  18.0908  18.2816

          k =-0.0000 0.3925 0.3925 (  8510 PWs)   bands (ev):

   -65.1645 -65.1628 -65.1628 -65.1619 -31.9658 -31.9658 -31.9657 -31.9588
   -31.9532 -31.9437 -31.9436 -31.9353 -31.9293 -31.9277 -31.9277 -31.9222
    -8.7022  -8.4020  -8.4020  -8.2354   4.0758   4.0759   4.1192   4.4422
     4.9123   5.5857   5.5857   6.1525   6.6007   6.6543   6.6543   6.9972
    15.3229  16.5840  16.5840  17.1623  18.6307  18.9819

          k =-0.0000 0.3925-0.3925 (  8510 PWs)   bands (ev):

   -65.1645 -65.1628 -65.1628 -65.1619 -31.9658 -31.9658 -31.9657 -31.9588
   -31.9532 -31.9437 -31.9436 -31.9353 -31.9293 -31.9277 -31.9277 -31.9222
    -8.7022  -8.4020  -8.4020  -8.2354   4.0758   4.0759   4.1192   4.4422
     4.9123   5.5857   5.5857   6.1525   6.6007   6.6543   6.6543   6.9972
    15.3229  16.5840  16.5840  17.1623  18.6307  18.6307

          k =-0.0000 0.3925-0.1963 (  8538 PWs)   bands (ev):

   -65.1660 -65.1636 -65.1614 -65.1611 -31.9660 -31.9610 -31.9609 -31.9596
   -31.9504 -31.9473 -31.9368 -31.9360 -31.9358 -31.9305 -31.9286 -31.9227
    -8.9593  -8.5634  -8.1788  -8.1312   4.1144   4.2794   4.4396   4.5526
     5.0694   5.1782   6.1055   6.2210   6.2335   6.5653   6.6787   7.0151
    14.4187  15.9732  17.7190  17.9299  18.0908  18.2816

          k = 0.1963-0.0000-0.0000 (  8501 PWs)   bands (ev):

   -65.1687 -65.1617 -65.1609 -65.1609 -31.9726 -31.9726 -31.9710 -31.9443
   -31.9443 -31.9415 -31.9415 -31.9388 -31.9388 -31.9242 -31.9203 -31.9203
    -9.4031  -8.2807  -8.1289  -8.1289   3.7498   3.7498   3.7719   5.7879
     5.7879   5.9852   5.9852   6.2304   6.2304   6.6857   7.2452   7.2452
    12.4564  16.6540  16.8495  17.0435  17.0435  17.3683

          k = 0.1963-0.0000 0.1963 (  8512 PWs)   bands (ev):

   -65.1679 -65.1616 -65.1616 -65.1609 -31.9698 -31.9698 -31.9693 -31.9513
   -31.9421 -31.9420 -31.9383 -31.9382 -31.9374 -31.9329 -31.9226 -31.9188
    -9.2806  -8.2477  -8.2476  -8.1242   3.8608   3.8608   3.9291   5.1983
     5.9063   5.9063   6.0620   6.1562   6.1562   6.2600   7.0800   7.2858
    13.0479  17.0755  17.1088  17.1089  17.3105  17.3105

          k = 0.1963 0.0000 0.3925 (  8538 PWs)   bands (ev):

   -65.1660 -65.1636 -65.1614 -65.1611 -31.9660 -31.9610 -31.9609 -31.9596
   -31.9504 -31.9473 -31.9368 -31.9360 -31.9358 -31.9305 -31.9286 -31.9227
    -8.9593  -8.5634  -8.1788  -8.1312   4.1144   4.2794   4.4396   4.5526
     5.0694   5.1782   6.1055   6.2210   6.2335   6.5653   6.6787   7.0151
    14.4187  15.9732  17.7190  17.9299  18.0908  18.2816

          k = 0.1963-0.0000-0.3925 (  8538 PWs)   bands (ev):

   -65.1660 -65.1636 -65.1614 -65.1611 -31.9660 -31.9610 -31.9609 -31.9596
   -31.9504 -31.9473 -31.9368 -31.9360 -31.9358 -31.9305 -31.9286 -31.9227
    -8.9593  -8.5634  -8.1788  -8.1312   4.1144   4.2794   4.4396   4.5526
     5.0694   5.1782   6.1055   6.2210   6.2335   6.5653   6.6787   7.0151
    14.4187  15.9732  17.7190  17.9299  18.0908  18.2816

          k = 0.1963-0.0000-0.1963 (  8512 PWs)   bands (ev):

   -65.1679 -65.1616 -65.1616 -65.1609 -31.9698 -31.9698 -31.9693 -31.9513
   -31.9421 -31.9420 -31.9383 -31.9382 -31.9374 -31.9329 -31.9226 -31.9188
    -9.2806  -8.2477  -8.2476  -8.1242   3.8608   3.8608   3.9291   5.1983
     5.9063   5.9063   6.0620   6.1562   6.1562   6.2600   7.0800   7.2858
    13.0479  17.0755  17.1088  17.1089  17.3105  17.3105

          k = 0.1963 0.1963 0.0000 (  8512 PWs)   bands (ev):

   -65.1679 -65.1616 -65.1616 -65.1609 -31.9698 -31.9698 -31.9693 -31.9513
   -31.9420 -31.9420 -31.9383 -31.9382 -31.9374 -31.9329 -31.9226 -31.9188
    -9.2806  -8.2477  -8.2476  -8.1242   3.8608   3.8608   3.9291   5.1983
     5.9062   5.9063   6.0620   6.1562   6.1562   6.2600   7.0800   7.2858
    13.0479  17.0755  17.1088  17.1089  17.3105  17.3105

          k = 0.1963 0.1963 0.1963 (  8517 PWs)   bands (ev):

   -65.1673 -65.1616 -65.1616 -65.1616 -31.9701 -31.9701 -31.9701 -31.9448
   -31.9448 -31.9448 -31.9416 -31.9356 -31.9356 -31.9356 -31.9206 -31.9206
    -9.1659  -8.2275  -8.2274  -8.2274   3.8736   3.8736   3.8737   5.4938
     5.5490   5.5491   5.5491   6.3466   6.3466   6.3466   7.1747   7.1747
    13.4514  16.9278  16.9278  16.9279  18.0638  18.0638

          k = 0.1963 0.1963 0.3925 (  8510 PWs)   bands (ev):

   -65.1655 -65.1633 -65.1616 -65.1616 -31.9709 -31.9709 -31.9664 -31.9557
   -31.9468 -31.9468 -31.9336 -31.9336 -31.9331 -31.9309 -31.9252 -31.9237
    -8.8678  -8.5076  -8.1945  -8.1944   3.8646   3.8646   4.0359   4.6255
     5.3024   5.3025   6.2427   6.3479   6.3480   6.5834   6.8889   6.8986
    14.5399  15.9256  17.1687  17.1687  18.4411  18.8289

          k = 0.1963 0.1963-0.3925 (  8510 PWs)   bands (ev):

   -65.1655 -65.1633 -65.1616 -65.1616 -31.9709 -31.9709 -31.9664 -31.9557
   -31.9468 -31.9468 -31.9336 -31.9336 -31.9331 -31.9309 -31.9252 -31.9237
    -8.8678  -8.5076  -8.1945  -8.1944   3.8646   3.8646   4.0359   4.6255
     5.3024   5.3025   6.2427   6.3479   6.3480   6.5834   6.8889   6.8986
    14.5399  15.9256  17.1687  17.1687  18.4411  18.8289

          k = 0.1963 0.1963-0.1963 (  8517 PWs)   bands (ev):

   -65.1673 -65.1616 -65.1616 -65.1616 -31.9701 -31.9701 -31.9701 -31.9448
   -31.9448 -31.9448 -31.9416 -31.9356 -31.9356 -31.9356 -31.9206 -31.9206
    -9.1659  -8.2275  -8.2274  -8.2274   3.8736   3.8736   3.8737   5.4938
     5.5490   5.5491   5.5491   6.3466   6.3466   6.3466   7.1747   7.1747
    13.4514  16.9278  16.9278  16.9278  18.0637  18.0638

          k = 0.1963 0.3925 0.0000 (  8538 PWs)   bands (ev):

   -65.1660 -65.1636 -65.1614 -65.1611 -31.9660 -31.9610 -31.9609 -31.9596
   -31.9504 -31.9473 -31.9368 -31.9360 -31.9358 -31.9305 -31.9286 -31.9227
    -8.9593  -8.5634  -8.1788  -8.1312   4.1144   4.2794   4.4396   4.5526
     5.0694   5.1782   6.1055   6.2210   6.2335   6.5653   6.6787   7.0151
    14.4187  15.9732  17.7190  17.9299  18.0908  18.2816

          k = 0.1963 0.3925 0.1963 (  8510 PWs)   bands (ev):

   -65.1655 -65.1633 -65.1616 -65.1616 -31.9709 -31.9709 -31.9664 -31.9557
   -31.9468 -31.9468 -31.9336 -31.9336 -31.9331 -31.9309 -31.9252 -31.9237
    -8.8678  -8.5076  -8.1944  -8.1944   3.8646   3.8646   4.0359   4.6255
     5.3025   5.3025   6.2427   6.3479   6.3480   6.5834   6.8889   6.8986
    14.5399  15.9256  17.1687  17.1687  18.4411  18.8289

          k = 0.1963 0.3925 0.3925 (  8499 PWs)   bands (ev):

   -65.1643 -65.1628 -65.1628 -65.1621 -31.9757 -31.9739 -31.9739 -31.9678
   -31.9413 -31.9361 -31.9361 -31.9291 -31.9286 -31.9276 -31.9276 -31.9229
    -8.6381  -8.3787  -8.3787  -8.2578   3.5804   3.6600   3.6600   3.9678
     5.6318   6.0218   6.0218   6.5520   6.6373   6.6740   6.6740   6.9582
    15.0619  16.0446  16.0446  16.4547  18.9536  18.9536

          k = 0.1963 0.3925-0.3925 (  8499 PWs)   bands (ev):

   -65.1643 -65.1628 -65.1628 -65.1621 -31.9757 -31.9739 -31.9739 -31.9678
   -31.9413 -31.9361 -31.9361 -31.9291 -31.9286 -31.9276 -31.9276 -31.9229
    -8.6381  -8.3787  -8.3787  -8.2578   3.5804   3.6600   3.6600   3.9678
     5.6318   6.0218   6.0218   6.5520   6.6373   6.6740   6.6740   6.9582
    15.0619  16.0446  16.0446  16.4547  18.9536  19.1169

          k = 0.1963 0.3925-0.1963 (  8510 PWs)   bands (ev):

   -65.1655 -65.1633 -65.1616 -65.1616 -31.9709 -31.9709 -31.9664 -31.9557
   -31.9468 -31.9468 -31.9336 -31.9336 -31.9331 -31.9309 -31.9252 -31.9237
    -8.8678  -8.5076  -8.1944  -8.1944   3.8646   3.8646   4.0359   4.6255
     5.3025   5.3025   6.2427   6.3479   6.3480   6.5834   6.8889   6.8986
    14.5399  15.9256  17.1687  17.1687  18.4411  18.8289

          k = 0.1963-0.3925-0.0000 (  8538 PWs)   bands (ev):

   -65.1660 -65.1636 -65.1614 -65.1611 -31.9660 -31.9610 -31.9609 -31.9596
   -31.9504 -31.9473 -31.9368 -31.9360 -31.9358 -31.9305 -31.9286 -31.9227
    -8.9593  -8.5634  -8.1788  -8.1312   4.1144   4.2794   4.4396   4.5526
     5.0694   5.1782   6.1055   6.2210   6.2335   6.5653   6.6787   7.0151
    14.4187  15.9732  17.7190  17.9299  18.0908  18.2816

          k = 0.1963-0.3925 0.1963 (  8510 PWs)   bands (ev):

   -65.1655 -65.1633 -65.1616 -65.1616 -31.9709 -31.9709 -31.9664 -31.9557
   -31.9468 -31.9468 -31.9336 -31.9336 -31.9331 -31.9309 -31.9252 -31.9237
    -8.8678  -8.5076  -8.1944  -8.1944   3.8646   3.8646   4.0359   4.6255
     5.3025   5.3025   6.2427   6.3479   6.3480   6.5834   6.8889   6.8986
    14.5399  15.9256  17.1687  17.1687  18.4411  18.8289

          k = 0.1963-0.3925 0.3925 (  8499 PWs)   bands (ev):

   -65.1643 -65.1628 -65.1628 -65.1621 -31.9757 -31.9739 -31.9739 -31.9678
   -31.9413 -31.9361 -31.9361 -31.9291 -31.9286 -31.9276 -31.9276 -31.9229
    -8.6381  -8.3787  -8.3787  -8.2578   3.5804   3.6600   3.6600   3.9678
     5.6318   6.0218   6.0218   6.5520   6.6373   6.6740   6.6740   6.9582
    15.0619  16.0446  16.0446  16.4547  18.9536  18.9536

          k = 0.1963-0.3925-0.3925 (  8499 PWs)   bands (ev):

   -65.1643 -65.1628 -65.1628 -65.1621 -31.9757 -31.9739 -31.9739 -31.9678
   -31.9413 -31.9361 -31.9361 -31.9291 -31.9286 -31.9276 -31.9276 -31.9229
    -8.6381  -8.3787  -8.3787  -8.2578   3.5804   3.6600   3.6600   3.9678
     5.6318   6.0218   6.0218   6.5520   6.6373   6.6740   6.6740   6.9582
    15.0619  16.0446  16.0446  16.4547  18.9536  18.9536

          k = 0.1963-0.3925-0.1963 (  8510 PWs)   bands (ev):

   -65.1655 -65.1633 -65.1616 -65.1616 -31.9709 -31.9709 -31.9664 -31.9557
   -31.9468 -31.9468 -31.9336 -31.9336 -31.9331 -31.9309 -31.9252 -31.9237
    -8.8678  -8.5076  -8.1944  -8.1944   3.8646   3.8646   4.0359   4.6255
     5.3025   5.3025   6.2427   6.3479   6.3480   6.5834   6.8889   6.8986
    14.5399  15.9256  17.1687  17.1687  18.4411  18.8289

          k = 0.1963-0.1963-0.0000 (  8512 PWs)   bands (ev):

   -65.1679 -65.1616 -65.1616 -65.1609 -31.9698 -31.9698 -31.9693 -31.9513
   -31.9420 -31.9420 -31.9383 -31.9382 -31.9374 -31.9329 -31.9226 -31.9188
    -9.2806  -8.2477  -8.2476  -8.1242   3.8608   3.8608   3.9291   5.1983
     5.9062   5.9063   6.0620   6.1562   6.1562   6.2600   7.0800   7.2858
    13.0479  17.0755  17.1088  17.1089  17.3105  17.3105

          k = 0.1963-0.1963 0.1963 (  8517 PWs)   bands (ev):

   -65.1673 -65.1616 -65.1616 -65.1616 -31.9701 -31.9701 -31.9701 -31.9448
   -31.9448 -31.9448 -31.9416 -31.9356 -31.9356 -31.9356 -31.9206 -31.9206
    -9.1659  -8.2275  -8.2274  -8.2274   3.8736   3.8736   3.8737   5.4938
     5.5490   5.5491   5.5491   6.3466   6.3466   6.3466   7.1747   7.1747
    13.4514  16.9278  16.9278  16.9279  18.0637  18.0638

          k = 0.1963-0.1963 0.3925 (  8510 PWs)   bands (ev):

   -65.1655 -65.1633 -65.1616 -65.1616 -31.9709 -31.9709 -31.9664 -31.9557
   -31.9468 -31.9468 -31.9336 -31.9336 -31.9331 -31.9309 -31.9252 -31.9237
    -8.8678  -8.5076  -8.1945  -8.1944   3.8646   3.8646   4.0359   4.6255
     5.3024   5.3025   6.2427   6.3479   6.3480   6.5834   6.8889   6.8986
    14.5399  15.9256  17.1687  17.1687  18.4411  18.8289

          k = 0.1963-0.1963-0.3925 (  8510 PWs)   bands (ev):

   -65.1655 -65.1633 -65.1616 -65.1616 -31.9709 -31.9709 -31.9664 -31.9557
   -31.9468 -31.9468 -31.9336 -31.9336 -31.9331 -31.9309 -31.9252 -31.9237
    -8.8678  -8.5076  -8.1945  -8.1944   3.8646   3.8646   4.0359   4.6255
     5.3024   5.3025   6.2427   6.3479   6.3480   6.5834   6.8889   6.8986
    14.5399  15.9256  17.1687  17.1687  18.4411  18.8289

          k = 0.1963-0.1963-0.1963 (  8517 PWs)   bands (ev):

   -65.1673 -65.1616 -65.1616 -65.1616 -31.9701 -31.9701 -31.9701 -31.9448
   -31.9448 -31.9448 -31.9416 -31.9356 -31.9356 -31.9356 -31.9206 -31.9206
    -9.1659  -8.2275  -8.2274  -8.2274   3.8736   3.8736   3.8737   5.4938
     5.5490   5.5491   5.5491   6.3466   6.3466   6.3466   7.1747   7.1747
    13.4514  16.9278  16.9278  16.9278  18.0637  18.0638

          k = 0.3925-0.0000-0.0000 (  8542 PWs)   bands (ev):

   -65.1665 -65.1638 -65.1609 -65.1609 -31.9638 -31.9638 -31.9575 -31.9530
   -31.9530 -31.9424 -31.9424 -31.9396 -31.9331 -31.9331 -31.9260 -31.9260
    -9.0600  -8.6305  -8.0993  -8.0993   4.2723   4.2723   4.4068   5.0323
     5.0323   5.4494   5.7666   5.7666   6.5151   6.5151   6.9004   6.9004
    14.0821  15.6877  17.7985  18.1484  18.1484  18.6035

          k = 0.3925-0.0000 0.1963 (  8538 PWs)   bands (ev):

   -65.1660 -65.1636 -65.1614 -65.1611 -31.9660 -31.9610 -31.9609 -31.9596
   -31.9504 -31.9473 -31.9368 -31.9360 -31.9358 -31.9305 -31.9286 -31.9227
    -8.9593  -8.5634  -8.1788  -8.1312   4.1144   4.2794   4.4396   4.5526
     5.0694   5.1782   6.1055   6.2210   6.2335   6.5653   6.6787   7.0151
    14.4187  15.9732  17.7190  17.9299  18.0908  18.2816

          k = 0.3925-0.0000 0.3925 (  8510 PWs)   bands (ev):

   -65.1645 -65.1628 -65.1628 -65.1619 -31.9658 -31.9657 -31.9657 -31.9588
   -31.9532 -31.9437 -31.9436 -31.9353 -31.9293 -31.9278 -31.9277 -31.9222
    -8.7022  -8.4020  -8.4020  -8.2354   4.0759   4.0759   4.1192   4.4422
     4.9123   5.5857   5.5858   6.1525   6.6007   6.6542   6.6543   6.9972
    15.3229  16.5840  16.5840  17.1623  18.6307  18.6307

          k = 0.3925-0.0000-0.3925 (  8510 PWs)   bands (ev):

   -65.1645 -65.1628 -65.1628 -65.1619 -31.9658 -31.9657 -31.9657 -31.9588
   -31.9532 -31.9437 -31.9436 -31.9353 -31.9293 -31.9278 -31.9277 -31.9222
    -8.7022  -8.4020  -8.4020  -8.2354   4.0759   4.0759   4.1192   4.4422
     4.9123   5.5857   5.5858   6.1525   6.6007   6.6542   6.6543   6.9972
    15.3229  16.5840  16.5840  17.1623  18.6307  18.6307

          k = 0.3925-0.0000-0.1963 (  8538 PWs)   bands (ev):

   -65.1660 -65.1636 -65.1614 -65.1611 -31.9660 -31.9610 -31.9609 -31.9596
   -31.9504 -31.9473 -31.9368 -31.9360 -31.9358 -31.9305 -31.9286 -31.9227
    -8.9593  -8.5634  -8.1788  -8.1312   4.1144   4.2794   4.4396   4.5526
     5.0694   5.1782   6.1055   6.2210   6.2335   6.5653   6.6787   7.0151
    14.4187  15.9732  17.7190  17.9299  18.0908  18.2816

          k = 0.3925 0.1963 0.0000 (  8538 PWs)   bands (ev):

   -65.1660 -65.1636 -65.1614 -65.1611 -31.9660 -31.9610 -31.9609 -31.9596
   -31.9504 -31.9473 -31.9368 -31.9360 -31.9358 -31.9305 -31.9286 -31.9227
    -8.9593  -8.5634  -8.1788  -8.1312   4.1144   4.2794   4.4396   4.5526
     5.0694   5.1782   6.1055   6.2210   6.2335   6.5653   6.6787   7.0151
    14.4187  15.9732  17.7190  17.9299  18.0908  18.2816

          k = 0.3925 0.1963 0.1963 (  8510 PWs)   bands (ev):

   -65.1655 -65.1633 -65.1616 -65.1616 -31.9709 -31.9709 -31.9664 -31.9557
   -31.9468 -31.9468 -31.9336 -31.9336 -31.9331 -31.9309 -31.9252 -31.9237
    -8.8678  -8.5076  -8.1944  -8.1944   3.8646   3.8646   4.0359   4.6255
     5.3025   5.3025   6.2427   6.3479   6.3479   6.5834   6.8889   6.8986
    14.5399  15.9256  17.1687  17.1687  18.4411  18.8289

          k = 0.3925 0.1963 0.3925 (  8499 PWs)   bands (ev):

   -65.1643 -65.1628 -65.1628 -65.1621 -31.9757 -31.9739 -31.9739 -31.9678
   -31.9413 -31.9361 -31.9361 -31.9291 -31.9286 -31.9277 -31.9276 -31.9229
    -8.6381  -8.3787  -8.3787  -8.2578   3.5804   3.6600   3.6600   3.9678
     5.6318   6.0218   6.0218   6.5520   6.6373   6.6740   6.6740   6.9582
    15.0619  16.0446  16.0446  16.4547  18.9536  18.9536

          k = 0.3925 0.1963-0.3925 (  8499 PWs)   bands (ev):

   -65.1643 -65.1628 -65.1628 -65.1621 -31.9757 -31.9739 -31.9739 -31.9678
   -31.9413 -31.9361 -31.9361 -31.9291 -31.9286 -31.9277 -31.9276 -31.9229
    -8.6381  -8.3787  -8.3787  -8.2578   3.5804   3.6600   3.6600   3.9678
     5.6318   6.0218   6.0218   6.5520   6.6373   6.6740   6.6740   6.9582
    15.0619  16.0446  16.0446  16.4547  18.9536  19.1177

          k = 0.3925 0.1963-0.1963 (  8510 PWs)   bands (ev):

   -65.1655 -65.1633 -65.1616 -65.1616 -31.9709 -31.9709 -31.9664 -31.9557
   -31.9468 -31.9468 -31.9336 -31.9336 -31.9331 -31.9309 -31.9252 -31.9237
    -8.8678  -8.5076  -8.1944  -8.1944   3.8646   3.8646   4.0359   4.6255
     5.3025   5.3025   6.2427   6.3479   6.3479   6.5834   6.8889   6.8986
    14.5399  15.9256  17.1687  17.1687  18.4411  18.8289

          k = 0.3925 0.3925 0.0000 (  8510 PWs)   bands (ev):

   -65.1645 -65.1628 -65.1628 -65.1619 -31.9658 -31.9658 -31.9657 -31.9588
   -31.9532 -31.9437 -31.9436 -31.9353 -31.9293 -31.9277 -31.9277 -31.9222
    -8.7022  -8.4021  -8.4020  -8.2354   4.0758   4.0759   4.1192   4.4422
     4.9123   5.5857   5.5858   6.1525   6.6007   6.6542   6.6543   6.9972
    15.3229  16.5840  16.5840  17.1623  18.6307  18.6307

          k = 0.3925 0.3925 0.1963 (  8499 PWs)   bands (ev):

   -65.1643 -65.1628 -65.1628 -65.1621 -31.9757 -31.9739 -31.9739 -31.9678
   -31.9413 -31.9361 -31.9361 -31.9291 -31.9286 -31.9276 -31.9276 -31.9229
    -8.6381  -8.3787  -8.3787  -8.2578   3.5804   3.6600   3.6600   3.9678
     5.6318   6.0218   6.0218   6.5520   6.6373   6.6740   6.6741   6.9582
    15.0619  16.0446  16.0446  16.4547  18.9536  18.9536

          k = 0.3925 0.3925 0.3925 (  8465 PWs)   bands (ev):

   -65.1636 -65.1628 -65.1628 -65.1628 -31.9826 -31.9825 -31.9825 -31.9792
   -31.9290 -31.9290 -31.9290 -31.9268 -31.9268 -31.9268 -31.9246 -31.9246
    -8.4875  -8.3405  -8.3405  -8.3404   3.2004   3.2004   3.2004   3.3628
     6.4900   6.4900   6.4901   6.7345   6.7345   6.7346   6.8572   6.8572
    14.8841  15.4090  15.4090  15.4090  19.2695  19.2750

          k = 0.3925 0.3925-0.3925 (  8465 PWs)   bands (ev):

   -65.1636 -65.1628 -65.1628 -65.1628 -31.9826 -31.9825 -31.9825 -31.9792
   -31.9290 -31.9290 -31.9290 -31.9268 -31.9268 -31.9268 -31.9246 -31.9246
    -8.4875  -8.3405  -8.3405  -8.3404   3.2004   3.2004   3.2004   3.3628
     6.4900   6.4900   6.4901   6.7345   6.7345   6.7346   6.8572   6.8572
    14.8841  15.4090  15.4090  15.4090  19.2695  19.2750

          k = 0.3925 0.3925-0.1963 (  8499 PWs)   bands (ev):

   -65.1643 -65.1628 -65.1628 -65.1621 -31.9757 -31.9739 -31.9739 -31.9678
   -31.9413 -31.9361 -31.9361 -31.9291 -31.9286 -31.9276 -31.9276 -31.9229
    -8.6381  -8.3787  -8.3787  -8.2578   3.5804   3.6600   3.6600   3.9678
     5.6318   6.0218   6.0218   6.5520   6.6373   6.6740   6.6741   6.9582
    15.0619  16.0446  16.0446  16.4547  18.9536  19.1175

          k = 0.3925-0.3925-0.0000 (  8510 PWs)   bands (ev):

   -65.1645 -65.1628 -65.1628 -65.1619 -31.9658 -31.9658 -31.9657 -31.9588
   -31.9532 -31.9437 -31.9436 -31.9353 -31.9293 -31.9277 -31.9277 -31.9222
    -8.7022  -8.4021  -8.4020  -8.2354   4.0758   4.0759   4.1192   4.4422
     4.9123   5.5857   5.5858   6.1525   6.6007   6.6542   6.6543   6.9972
    15.3229  16.5840  16.5840  17.1623  18.6307  18.9822

          k = 0.3925-0.3925 0.1963 (  8499 PWs)   bands (ev):

   -65.1643 -65.1628 -65.1628 -65.1621 -31.9757 -31.9739 -31.9739 -31.9678
   -31.9413 -31.9361 -31.9361 -31.9291 -31.9286 -31.9276 -31.9276 -31.9229
    -8.6381  -8.3787  -8.3787  -8.2578   3.5804   3.6600   3.6600   3.9678
     5.6318   6.0218   6.0218   6.5520   6.6373   6.6740   6.6741   6.9582
    15.0619  16.0446  16.0446  16.4547  18.9537  19.1175

          k = 0.3925-0.3925 0.3925 (  8465 PWs)   bands (ev):

   -65.1636 -65.1628 -65.1628 -65.1628 -31.9826 -31.9825 -31.9825 -31.9792
   -31.9290 -31.9290 -31.9290 -31.9268 -31.9268 -31.9268 -31.9246 -31.9246
    -8.4875  -8.3405  -8.3405  -8.3404   3.2004   3.2004   3.2004   3.3628
     6.4900   6.4900   6.4901   6.7345   6.7345   6.7346   6.8572   6.8572
    14.8841  15.4090  15.4090  15.4090  19.2695  19.2750

          k = 0.3925-0.3925-0.3925 (  8465 PWs)   bands (ev):

   -65.1636 -65.1628 -65.1628 -65.1628 -31.9826 -31.9825 -31.9825 -31.9792
   -31.9290 -31.9290 -31.9290 -31.9268 -31.9268 -31.9268 -31.9246 -31.9246
    -8.4875  -8.3405  -8.3405  -8.3404   3.2004   3.2004   3.2004   3.3628
     6.4900   6.4900   6.4901   6.7345   6.7345   6.7346   6.8572   6.8572
    14.8841  15.4090  15.4090  15.4090  19.2695  19.2750

          k = 0.3925-0.3925-0.1963 (  8499 PWs)   bands (ev):

   -65.1643 -65.1628 -65.1628 -65.1621 -31.9757 -31.9739 -31.9739 -31.9678
   -31.9413 -31.9361 -31.9361 -31.9291 -31.9286 -31.9276 -31.9276 -31.9229
    -8.6381  -8.3787  -8.3787  -8.2578   3.5804   3.6600   3.6600   3.9678
     5.6318   6.0218   6.0218   6.5520   6.6373   6.6740   6.6741   6.9582
    15.0619  16.0446  16.0446  16.4547  18.9536  18.9536

          k = 0.3925-0.1963-0.0000 (  8538 PWs)   bands (ev):

   -65.1660 -65.1636 -65.1614 -65.1611 -31.9660 -31.9610 -31.9609 -31.9596
   -31.9504 -31.9473 -31.9368 -31.9360 -31.9358 -31.9305 -31.9286 -31.9227
    -8.9593  -8.5634  -8.1788  -8.1312   4.1144   4.2794   4.4396   4.5526
     5.0694   5.1782   6.1055   6.2210   6.2335   6.5653   6.6787   7.0151
    14.4187  15.9732  17.7190  17.9299  18.0908  18.2816

          k = 0.3925-0.1963 0.1963 (  8510 PWs)   bands (ev):

   -65.1655 -65.1633 -65.1616 -65.1616 -31.9709 -31.9709 -31.9664 -31.9557
   -31.9468 -31.9468 -31.9336 -31.9336 -31.9331 -31.9309 -31.9252 -31.9237
    -8.8678  -8.5076  -8.1944  -8.1944   3.8646   3.8646   4.0359   4.6255
     5.3025   5.3025   6.2427   6.3479   6.3479   6.5834   6.8889   6.8986
    14.5399  15.9256  17.1687  17.1687  18.4411  18.8289

          k = 0.3925-0.1963 0.3925 (  8499 PWs)   bands (ev):

   -65.1643 -65.1628 -65.1628 -65.1621 -31.9757 -31.9739 -31.9739 -31.9678
   -31.9413 -31.9361 -31.9361 -31.9291 -31.9286 -31.9277 -31.9276 -31.9229
    -8.6381  -8.3787  -8.3787  -8.2578   3.5804   3.6600   3.6600   3.9678
     5.6318   6.0218   6.0218   6.5520   6.6373   6.6740   6.6740   6.9582
    15.0619  16.0446  16.0446  16.4547  18.9536  19.1177

          k = 0.3925-0.1963-0.3925 (  8499 PWs)   bands (ev):

   -65.1643 -65.1628 -65.1628 -65.1621 -31.9757 -31.9739 -31.9739 -31.9678
   -31.9413 -31.9361 -31.9361 -31.9291 -31.9286 -31.9277 -31.9276 -31.9229
    -8.6381  -8.3787  -8.3787  -8.2578   3.5804   3.6600   3.6600   3.9678
     5.6318   6.0218   6.0218   6.5520   6.6373   6.6740   6.6740   6.9582
    15.0619  16.0446  16.0446  16.4547  18.9536  18.9536

          k = 0.3925-0.1963-0.1963 (  8510 PWs)   bands (ev):

   -65.1655 -65.1633 -65.1616 -65.1616 -31.9709 -31.9709 -31.9664 -31.9557
   -31.9468 -31.9468 -31.9336 -31.9336 -31.9331 -31.9309 -31.9252 -31.9237
    -8.8678  -8.5076  -8.1944  -8.1944   3.8646   3.8646   4.0359   4.6255
     5.3025   5.3025   6.2427   6.3479   6.3479   6.5834   6.8889   6.8986
    14.5399  15.9256  17.1687  17.1687  18.4411  18.8289

     the Fermi energy is     8.8215 ev

!    total energy              =    -608.51020308 Ry
     estimated scf accuracy    <       0.00000091 Ry
     smearing contrib. (-TS)   =      -0.00000000 Ry
     internal energy E=F+TS    =    -608.51020308 Ry

     The total energy is F=E-TS. E is the sum of the following terms:
     one-electron contribution =    -308.25256214 Ry
     hartree contribution      =     169.67771961 Ry
     xc contribution           =     -97.75604763 Ry
     ewald contribution        =    -372.07789218 Ry
     DFT-D3 Dispersion         =      -0.10142074 Ry

     convergence has been achieved in  10 iterations

     Forces acting on atoms (cartesian axes, Ry/au):

     atom    1 type  1   force =     0.00000012   -0.00000006    0.00000019
     atom    2 type  1   force =    -0.00000013   -0.00000002   -0.00000016
     atom    3 type  1   force =     0.00000027   -0.00000013   -0.00000015
     atom    4 type  1   force =    -0.00000012    0.00000019   -0.00000050
     atom    5 type  2   force =     0.00000018   -0.00000059    0.00000083
     atom    6 type  2   force =    -0.00000035   -0.00000002   -0.00000009
     atom    7 type  2   force =     0.00000007    0.00000176   -0.00000061
     atom    8 type  2   force =    -0.00000004   -0.00000114    0.00000048

     Total force =     0.000003     Total SCF correction =     0.000007
     SCF correction compared to forces is large: reduce conv_thr to get better values


     Computing stress (Cartesian axis) and pressure

          total   stress  (Ry/bohr**3)                   (kbar)     P=      -67.40
  -0.00045817  -0.00000000  -0.00000000          -67.40       -0.00       -0.00
  -0.00000000  -0.00045817   0.00000001           -0.00      -67.40        0.00
  -0.00000000   0.00000001  -0.00045817           -0.00        0.00      -67.40


     number of scf cycles    =   2
     number of bfgs steps    =   1

     enthalpy old            =    -608.8588812460 Ry
     enthalpy new            =    -608.8726954766 Ry

     CASE: enthalpy_new < enthalpy_old

     new trust radius        =       0.0373668459 bohr
     new conv_thr            =       0.0000000100 Ry

     new unit-cell volume =    546.29282 a.u.^3 (    80.95224 Ang^3 )
     density =      3.30696 g/cm^3

CELL_PARAMETERS (angstrom)
   4.325898615  -0.000000520  -0.000000269
  -0.000000520   4.325897928   0.000000974
  -0.000000269   0.000000974   4.325898143

ATOMIC_POSITIONS (angstrom)
Mg            0.0000002038        0.0000003037        0.0000000178
Mg           -0.0000004618        2.1629497169        2.1629494259
Mg            2.1629493153        0.0000001239        2.1629487185
Mg            2.1629489127        2.1629482465        0.0000002324
O             2.1629489415        2.1629487629        2.1629497905
O             2.1629490724        0.0000001233       -0.0000001213
O            -0.0000002731        2.1629501127        0.0000000362
O            -0.0000000591       -0.0000006267        2.1629495953


     NEW-OLD atomic charge density approx. for the potential
     extrapolated charge   65.52855, renormalised to   64.00000

     total cpu time spent up to now is      109.3 secs

     Self-consistent Calculation

     iteration #  1     ecut=   100.00 Ry     beta= 0.50
     Davidson diagonalization with overlap
     ethr =  1.00E-06,  avg # of iterations =  6.9

     total cpu time spent up to now is      118.5 secs

     total energy              =    -608.41790894 Ry
     estimated scf accuracy    <       0.05053484 Ry

     iteration #  2     ecut=   100.00 Ry     beta= 0.50
     Davidson diagonalization with overlap
     ethr =  7.90E-05,  avg # of iterations =  3.2

     total cpu time spent up to now is      123.7 secs

     total energy              =    -608.50410931 Ry
     estimated scf accuracy    <       0.08267119 Ry

     iteration #  3     ecut=   100.00 Ry     beta= 0.50
     Davidson diagonalization with overlap
     ethr =  7.90E-05,  avg # of iterations =  2.0

     total cpu time spent up to now is      127.2 secs

     total energy              =    -608.50433745 Ry
     estimated scf accuracy    <       0.01779000 Ry

     iteration #  4     ecut=   100.00 Ry     beta= 0.50
     Davidson diagonalization with overlap
     ethr =  2.78E-05,  avg # of iterations =  1.3

     total cpu time spent up to now is      130.4 secs

     total energy              =    -608.50170614 Ry
     estimated scf accuracy    <       0.00617201 Ry

     iteration #  5     ecut=   100.00 Ry     beta= 0.50
     Davidson diagonalization with overlap
     ethr =  9.64E-06,  avg # of iterations =  2.3

     total cpu time spent up to now is      134.5 secs

     total energy              =    -608.50274834 Ry
     estimated scf accuracy    <       0.00002783 Ry

     iteration #  6     ecut=   100.00 Ry     beta= 0.50
     Davidson diagonalization with overlap
     ethr =  4.35E-08,  avg # of iterations =  2.8

     total cpu time spent up to now is      138.3 secs

     total energy              =    -608.50275419 Ry
     estimated scf accuracy    <       0.00001361 Ry

     iteration #  7     ecut=   100.00 Ry     beta= 0.50
     Davidson diagonalization with overlap
     ethr =  2.13E-08,  avg # of iterations =  1.1

     total cpu time spent up to now is      141.4 secs

     total energy              =    -608.50274788 Ry
     estimated scf accuracy    <       0.00001576 Ry

     iteration #  8     ecut=   100.00 Ry     beta= 0.50
     Davidson diagonalization with overlap
     ethr =  2.13E-08,  avg # of iterations =  2.0

     total cpu time spent up to now is      144.9 secs

     total energy              =    -608.50274861 Ry
     estimated scf accuracy    <       0.00000172 Ry

     iteration #  9     ecut=   100.00 Ry     beta= 0.50
     Davidson diagonalization with overlap
     ethr =  2.69E-09,  avg # of iterations =  2.0

     total cpu time spent up to now is      148.5 secs

     total energy              =    -608.50274878 Ry
     estimated scf accuracy    <       0.00000025 Ry

     iteration # 10     ecut=   100.00 Ry     beta= 0.50
     Davidson diagonalization with overlap
     ethr =  3.91E-10,  avg # of iterations =  1.0

     total cpu time spent up to now is      151.7 secs

     total energy              =    -608.50274867 Ry
     estimated scf accuracy    <       0.00000022 Ry

     iteration # 11     ecut=   100.00 Ry     beta= 0.50
     Davidson diagonalization with overlap
     ethr =  3.42E-10,  avg # of iterations =  2.0

     total cpu time spent up to now is      155.3 secs

     End of self-consistent calculation

          k = 0.0000 0.0000 0.0000 (  8409 PWs)   bands (ev):

   -65.5355 -65.5279 -65.5279 -65.5279 -32.3355 -32.3355 -32.3355 -32.3039
[...]
   -32.3282 -32.3236 -32.3236 -32.3173 -32.3168 -32.3160 -32.3160 -32.3117
    -8.8590  -8.6132  -8.6132  -8.4988   3.3792   3.4530   3.4530   3.7466
     5.3889   5.7696   5.7696   6.2859   6.3714   6.4068   6.4068   6.6842
    14.5596  15.5548  15.5548  15.9817  18.4377  18.5661

          k = 0.1946 0.3892-0.3892 (  9263 PWs)   bands (ev):

   -65.5554 -65.5541 -65.5541 -65.5535 -32.3590 -32.3573 -32.3573 -32.3518
   -32.3282 -32.3236 -32.3236 -32.3173 -32.3168 -32.3160 -32.3160 -32.3117
    -8.8590  -8.6132  -8.6132  -8.4988   3.3792   3.4530   3.4530   3.7466
     5.3889   5.7696   5.7696   6.2859   6.3714   6.4068   6.4068   6.6842
    14.5596  15.5548  15.5548  15.9817  18.4377  18.5661

          k = 0.1946 0.3892-0.1946 (  9237 PWs)   bands (ev):

   -65.5565 -65.5546 -65.5531 -65.5531 -32.3547 -32.3547 -32.3507 -32.3410
   -32.3332 -32.3332 -32.3213 -32.3213 -32.3208 -32.3189 -32.3137 -32.3124
    -9.0764  -8.7344  -8.4380  -8.4379   3.6583   3.6583   3.8157   4.3834
     5.0672   5.0673   5.9847   6.0868   6.0869   6.3150   6.6143   6.6221
    14.0188  15.4055  16.6940  16.6941  18.2906  18.2906

          k = 0.1946-0.3892 0.0000 (  9231 PWs)   bands (ev):

   -65.5569 -65.5548 -65.5529 -65.5527 -32.3504 -32.3458 -32.3458 -32.3446
   -32.3365 -32.3335 -32.3242 -32.3234 -32.3233 -32.3185 -32.3167 -32.3115
    -9.1629  -8.7868  -8.4226  -8.3776   3.9023   4.0518   4.2252   4.3311
     4.8143   4.9461   5.8488   5.9623   5.9732   6.2972   6.4066   6.7360
    13.8861  15.4254  17.2641  17.3873  17.8451  18.4072

          k = 0.1946-0.3892 0.1946 (  9237 PWs)   bands (ev):

   -65.5565 -65.5546 -65.5531 -65.5531 -32.3547 -32.3547 -32.3507 -32.3410
   -32.3332 -32.3332 -32.3213 -32.3213 -32.3208 -32.3189 -32.3137 -32.3124
    -9.0764  -8.7344  -8.4380  -8.4379   3.6583   3.6583   3.8157   4.3834
     5.0672   5.0673   5.9847   6.0868   6.0869   6.3150   6.6143   6.6221
    14.0188  15.4055  16.6940  16.6941  18.2906  18.2906

          k = 0.1946-0.3892 0.3892 (  9263 PWs)   bands (ev):

   -65.5554 -65.5541 -65.5541 -65.5535 -32.3590 -32.3573 -32.3573 -32.3518
   -32.3282 -32.3236 -32.3236 -32.3173 -32.3168 -32.3160 -32.3160 -32.3117
    -8.8590  -8.6132  -8.6132  -8.4988   3.3792   3.4530   3.4530   3.7466
     5.3889   5.7696   5.7696   6.2859   6.3714   6.4068   6.4068   6.6842
    14.5596  15.5548  15.5548  15.9817  18.4377  18.5661

          k = 0.1946-0.3892-0.3892 (  9263 PWs)   bands (ev):

   -65.5554 -65.5541 -65.5541 -65.5535 -32.3590 -32.3573 -32.3573 -32.3518
   -32.3282 -32.3236 -32.3236 -32.3173 -32.3168 -32.3160 -32.3160 -32.3117
    -8.8590  -8.6132  -8.6132  -8.4988   3.3792   3.4530   3.4530   3.7466
     5.3889   5.7696   5.7696   6.2859   6.3714   6.4068   6.4068   6.6842
    14.5596  15.5548  15.5548  15.9817  18.4377  18.5661

          k = 0.1946-0.3892-0.1946 (  9237 PWs)   bands (ev):

   -65.5565 -65.5546 -65.5531 -65.5531 -32.3547 -32.3547 -32.3507 -32.3410
   -32.3332 -32.3332 -32.3213 -32.3213 -32.3208 -32.3189 -32.3137 -32.3124
    -9.0764  -8.7344  -8.4380  -8.4379   3.6583   3.6583   3.8157   4.3834
     5.0672   5.0673   5.9847   6.0868   6.0869   6.3150   6.6143   6.6221
    14.0188  15.4055  16.6940  16.6941  18.2906  18.2906

          k = 0.1946-0.1946 0.0000 (  9239 PWs)   bands (ev):

   -65.5586 -65.5531 -65.5531 -65.5525 -32.3538 -32.3538 -32.3534 -32.3372
   -32.3289 -32.3289 -32.3255 -32.3255 -32.3247 -32.3205 -32.3113 -32.3080
    -9.4686  -8.4868  -8.4868  -8.3701   3.6535   3.6536   3.7256   4.9615
     5.6539   5.6539   5.7826   5.8963   5.8963   5.9988   6.7961   6.9981
    12.5236  16.5437  16.5437  16.6485  16.9399  17.5379

          k = 0.1946-0.1946 0.1946 (  9237 PWs)   bands (ev):

   -65.5580 -65.5531 -65.5531 -65.5531 -32.3541 -32.3541 -32.3541 -32.3314
   -32.3314 -32.3314 -32.3283 -32.3231 -32.3231 -32.3231 -32.3096 -32.3096
    -9.3595  -8.4683  -8.4682  -8.4682   3.6663   3.6664   3.6664   5.2278
     5.3062   5.3062   5.3063   6.0836   6.0836   6.0836   6.8903   6.8903
    12.9291  16.4510  16.4510  16.4510  17.5745  17.5745

          k = 0.1946-0.1946 0.3892 (  9237 PWs)   bands (ev):

   -65.5565 -65.5546 -65.5531 -65.5531 -32.3547 -32.3547 -32.3507 -32.3410
   -32.3332 -32.3332 -32.3213 -32.3213 -32.3208 -32.3189 -32.3137 -32.3124
    -9.0764  -8.7344  -8.4379  -8.4379   3.6583   3.6583   3.8157   4.3834
     5.0672   5.0672   5.9847   6.0869   6.0869   6.3150   6.6143   6.6221
    14.0188  15.4055  16.6941  16.6941  18.2906  18.2906

          k = 0.1946-0.1946-0.3892 (  9237 PWs)   bands (ev):

   -65.5565 -65.5546 -65.5531 -65.5531 -32.3547 -32.3547 -32.3507 -32.3410
   -32.3332 -32.3332 -32.3213 -32.3213 -32.3208 -32.3189 -32.3137 -32.3124
    -9.0764  -8.7344  -8.4379  -8.4379   3.6583   3.6583   3.8157   4.3834
     5.0672   5.0672   5.9847   6.0869   6.0869   6.3150   6.6143   6.6221
    14.0188  15.4055  16.6941  16.6941  18.2906  18.2906

          k = 0.1946-0.1946-0.1946 (  9237 PWs)   bands (ev):

   -65.5580 -65.5531 -65.5531 -65.5531 -32.3541 -32.3541 -32.3541 -32.3314
   -32.3314 -32.3314 -32.3283 -32.3231 -32.3231 -32.3231 -32.3096 -32.3096
    -9.3595  -8.4683  -8.4682  -8.4682   3.6663   3.6664   3.6664   5.2278
     5.3062   5.3062   5.3063   6.0836   6.0836   6.0836   6.8903   6.8903
    12.9291  16.4510  16.4510  16.4510  17.5745  17.5745

          k = 0.3892 0.0000 0.0000 (  9210 PWs)   bands (ev):

   -65.5574 -65.5550 -65.5524 -65.5524 -32.3485 -32.3485 -32.3427 -32.3388
   -32.3388 -32.3291 -32.3291 -32.3266 -32.3208 -32.3208 -32.3144 -32.3144
    -9.2584  -8.8500  -8.3469  -8.3469   4.0614   4.0614   4.1759   4.8035
     4.8035   5.1852   5.5148   5.5148   6.2458   6.2458   6.6211   6.6211
    13.5488  15.1375  17.4402  17.7150  17.7150  18.6360

          k = 0.3892 0.0000 0.1946 (  9231 PWs)   bands (ev):

   -65.5569 -65.5548 -65.5529 -65.5527 -32.3504 -32.3458 -32.3458 -32.3446
   -32.3365 -32.3335 -32.3242 -32.3234 -32.3233 -32.3185 -32.3167 -32.3115
    -9.1629  -8.7868  -8.4226  -8.3776   3.9023   4.0518   4.2252   4.3311
     4.8143   4.9461   5.8488   5.9623   5.9732   6.2972   6.4066   6.7360
    13.8861  15.4254  17.2641  17.3873  17.7048  17.8451

          k = 0.3892-0.0000 0.3892 (  9228 PWs)   bands (ev):

   -65.5556 -65.5541 -65.5541 -65.5533 -32.3501 -32.3501 -32.3500 -32.3438
   -32.3389 -32.3303 -32.3303 -32.3228 -32.3175 -32.3160 -32.3160 -32.3111
    -8.9192  -8.6346  -8.6345  -8.4769   3.8561   3.8562   3.9035   4.2058
     4.6874   5.3440   5.3440   5.8959   6.3355   6.3873   6.3874   6.7219
    14.7921  16.0529  16.0529  16.6697  18.1882  18.4996

          k = 0.3892 0.0000-0.3892 (  9228 PWs)   bands (ev):

   -65.5556 -65.5541 -65.5541 -65.5533 -32.3501 -32.3501 -32.3500 -32.3438
   -32.3389 -32.3303 -32.3303 -32.3228 -32.3175 -32.3160 -32.3160 -32.3111
    -8.9192  -8.6346  -8.6345  -8.4769   3.8561   3.8562   3.9035   4.2058
     4.6874   5.3440   5.3440   5.8959   6.3355   6.3873   6.3874   6.7219
    14.7921  16.0529  16.0529  16.6697  18.1882  18.4997

          k = 0.3892 0.0000-0.1946 (  9231 PWs)   bands (ev):

   -65.5569 -65.5548 -65.5529 -65.5527 -32.3504 -32.3458 -32.3458 -32.3446
   -32.3365 -32.3335 -32.3242 -32.3234 -32.3233 -32.3185 -32.3167 -32.3115
    -9.1629  -8.7868  -8.4226  -8.3776   3.9023   4.0518   4.2252   4.3311
     4.8143   4.9461   5.8488   5.9623   5.9732   6.2972   6.4066   6.7360
    13.8861  15.4254  17.2641  17.3873  17.8451  18.4075

          k = 0.3892 0.1946-0.0000 (  9231 PWs)   bands (ev):

   -65.5569 -65.5548 -65.5529 -65.5527 -32.3504 -32.3458 -32.3458 -32.3446
   -32.3365 -32.3335 -32.3242 -32.3234 -32.3233 -32.3185 -32.3167 -32.3115
    -9.1629  -8.7868  -8.4226  -8.3776   3.9023   4.0518   4.2252   4.3311
     4.8143   4.9461   5.8488   5.9623   5.9732   6.2972   6.4066   6.7360
    13.8861  15.4254  17.2641  17.3873  17.7048  17.8451

          k = 0.3892 0.1946 0.1946 (  9237 PWs)   bands (ev):

   -65.5565 -65.5546 -65.5531 -65.5531 -32.3547 -32.3547 -32.3507 -32.3410
   -32.3332 -32.3332 -32.3213 -32.3213 -32.3208 -32.3189 -32.3137 -32.3124
    -9.0764  -8.7344  -8.4379  -8.4379   3.6583   3.6583   3.8157   4.3834
     5.0672   5.0672   5.9847   6.0869   6.0869   6.3150   6.6143   6.6221
    14.0188  15.4055  16.6941  16.6941  18.2906  18.2906

          k = 0.3892 0.1946 0.3892 (  9263 PWs)   bands (ev):

   -65.5554 -65.5541 -65.5541 -65.5535 -32.3590 -32.3574 -32.3573 -32.3518
   -32.3282 -32.3236 -32.3236 -32.3173 -32.3168 -32.3160 -32.3159 -32.3117
    -8.8590  -8.6132  -8.6131  -8.4988   3.3792   3.4529   3.4530   3.7466
     5.3889   5.7696   5.7696   6.2859   6.3714   6.4067   6.4068   6.6842
    14.5596  15.5548  15.5548  15.9817  18.4377  18.5661

          k = 0.3892 0.1946-0.3892 (  9263 PWs)   bands (ev):

   -65.5554 -65.5541 -65.5541 -65.5535 -32.3590 -32.3574 -32.3573 -32.3518
   -32.3282 -32.3236 -32.3236 -32.3173 -32.3168 -32.3160 -32.3159 -32.3117
    -8.8590  -8.6132  -8.6131  -8.4988   3.3792   3.4529   3.4530   3.7466
     5.3889   5.7696   5.7696   6.2859   6.3714   6.4067   6.4068   6.6842
    14.5596  15.5548  15.5548  15.9817  18.4377  18.5661

          k = 0.3892 0.1946-0.1946 (  9237 PWs)   bands (ev):

   -65.5565 -65.5546 -65.5531 -65.5531 -32.3547 -32.3547 -32.3507 -32.3410
   -32.3332 -32.3332 -32.3213 -32.3213 -32.3208 -32.3189 -32.3137 -32.3124
    -9.0764  -8.7344  -8.4379  -8.4379   3.6583   3.6583   3.8157   4.3834
     5.0672   5.0672   5.9847   6.0869   6.0869   6.3150   6.6143   6.6221
    14.0188  15.4055  16.6941  16.6941  18.2906  18.2906

          k = 0.3892 0.3892-0.0000 (  9228 PWs)   bands (ev):

   -65.5556 -65.5541 -65.5541 -65.5533 -32.3501 -32.3501 -32.3500 -32.3438
   -32.3389 -32.3303 -32.3303 -32.3228 -32.3175 -32.3160 -32.3160 -32.3111
    -8.9192  -8.6346  -8.6346  -8.4769   3.8561   3.8562   3.9035   4.2058
     4.6874   5.3440   5.3440   5.8959   6.3355   6.3874   6.3874   6.7219
    14.7921  16.0529  16.0529  16.6697  18.1882  18.4994

          k = 0.3892 0.3892 0.1946 (  9263 PWs)   bands (ev):

   -65.5554 -65.5541 -65.5541 -65.5535 -32.3590 -32.3574 -32.3573 -32.3518
   -32.3282 -32.3236 -32.3236 -32.3173 -32.3168 -32.3160 -32.3160 -32.3117
    -8.8590  -8.6132  -8.6132  -8.4988   3.3792   3.4530   3.4530   3.7466
     5.3889   5.7696   5.7696   6.2859   6.3714   6.4068   6.4068   6.6842
    14.5596  15.5548  15.5548  15.9817  18.4377  18.5661

          k = 0.3892 0.3892 0.3892 (  9276 PWs)   bands (ev):

   -65.5548 -65.5541 -65.5541 -65.5541 -32.3651 -32.3651 -32.3651 -32.3621
   -32.3172 -32.3172 -32.3172 -32.3152 -32.3152 -32.3152 -32.3132 -32.3132
    -8.7172  -8.5781  -8.5781  -8.5780   3.0068   3.0068   3.0068   3.1612
     6.2281   6.2281   6.2282   6.4666   6.4666   6.4667   6.5862   6.5862
    14.4150  14.9478  14.9478  14.9479  18.7004  18.7004

          k = 0.3892 0.3892-0.3892 (  9276 PWs)   bands (ev):

   -65.5548 -65.5541 -65.5541 -65.5541 -32.3651 -32.3651 -32.3651 -32.3621
   -32.3172 -32.3172 -32.3172 -32.3152 -32.3152 -32.3152 -32.3132 -32.3132
    -8.7172  -8.5781  -8.5781  -8.5780   3.0068   3.0068   3.0068   3.1612
     6.2281   6.2281   6.2282   6.4666   6.4666   6.4667   6.5862   6.5862
    14.4150  14.9478  14.9478  14.9479  18.7003  18.7004

          k = 0.3892 0.3892-0.1946 (  9263 PWs)   bands (ev):

   -65.5554 -65.5541 -65.5541 -65.5535 -32.3590 -32.3574 -32.3573 -32.3518
   -32.3282 -32.3236 -32.3236 -32.3173 -32.3168 -32.3160 -32.3160 -32.3117
    -8.8590  -8.6132  -8.6132  -8.4988   3.3792   3.4530   3.4530   3.7466
     5.3889   5.7696   5.7696   6.2859   6.3714   6.4068   6.4068   6.6842
    14.5596  15.5548  15.5548  15.9817  18.4377  18.5661

          k = 0.3892-0.3892 0.0000 (  9228 PWs)   bands (ev):

   -65.5556 -65.5541 -65.5541 -65.5533 -32.3501 -32.3501 -32.3500 -32.3438
   -32.3389 -32.3303 -32.3303 -32.3228 -32.3175 -32.3160 -32.3160 -32.3111
    -8.9192  -8.6346  -8.6346  -8.4769   3.8561   3.8562   3.9035   4.2058
     4.6874   5.3440   5.3440   5.8959   6.3355   6.3874   6.3874   6.7219
    14.7921  16.0529  16.0529  16.6697  18.1882  18.4997

          k = 0.3892-0.3892 0.1946 (  9263 PWs)   bands (ev):

   -65.5554 -65.5541 -65.5541 -65.5535 -32.3590 -32.3574 -32.3573 -32.3518
   -32.3282 -32.3236 -32.3236 -32.3173 -32.3168 -32.3160 -32.3160 -32.3117
    -8.8590  -8.6132  -8.6132  -8.4988   3.3792   3.4530   3.4530   3.7466
     5.3889   5.7696   5.7696   6.2859   6.3714   6.4068   6.4068   6.6842
    14.5596  15.5548  15.5548  15.9817  18.4377  18.5661

          k = 0.3892-0.3892 0.3892 (  9276 PWs)   bands (ev):

   -65.5548 -65.5541 -65.5541 -65.5541 -32.3651 -32.3651 -32.3651 -32.3621
   -32.3172 -32.3172 -32.3172 -32.3152 -32.3152 -32.3152 -32.3132 -32.3132
    -8.7172  -8.5781  -8.5781  -8.5780   3.0068   3.0068   3.0068   3.1612
     6.2281   6.2281   6.2282   6.4666   6.4666   6.4667   6.5862   6.5862
    14.4150  14.9478  14.9478  14.9479  18.7003  18.7004

          k = 0.3892-0.3892-0.3892 (  9276 PWs)   bands (ev):

   -65.5548 -65.5541 -65.5541 -65.5541 -32.3651 -32.3651 -32.3651 -32.3621
   -32.3172 -32.3172 -32.3172 -32.3152 -32.3152 -32.3152 -32.3132 -32.3132
    -8.7172  -8.5781  -8.5781  -8.5780   3.0068   3.0068   3.0068   3.1612
     6.2281   6.2281   6.2282   6.4666   6.4666   6.4667   6.5862   6.5862
    14.4150  14.9478  14.9478  14.9479  18.7003  18.7004

          k = 0.3892-0.3892-0.1946 (  9263 PWs)   bands (ev):

   -65.5554 -65.5541 -65.5541 -65.5535 -32.3590 -32.3574 -32.3573 -32.3518
   -32.3282 -32.3236 -32.3236 -32.3173 -32.3168 -32.3160 -32.3160 -32.3117
    -8.8590  -8.6132  -8.6132  -8.4988   3.3792   3.4530   3.4530   3.7466
     5.3889   5.7696   5.7696   6.2859   6.3714   6.4068   6.4068   6.6842
    14.5596  15.5548  15.5548  15.9817  18.4377  18.5661

          k = 0.3892-0.1946 0.0000 (  9231 PWs)   bands (ev):

   -65.5569 -65.5548 -65.5529 -65.5527 -32.3504 -32.3458 -32.3458 -32.3446
   -32.3365 -32.3335 -32.3242 -32.3234 -32.3233 -32.3185 -32.3167 -32.3115
    -9.1629  -8.7868  -8.4226  -8.3776   3.9023   4.0518   4.2252   4.3311
     4.8143   4.9461   5.8488   5.9623   5.9732   6.2972   6.4066   6.7360
    13.8861  15.4254  17.2641  17.3873  17.8451  18.4069

          k = 0.3892-0.1946 0.1946 (  9237 PWs)   bands (ev):

   -65.5565 -65.5546 -65.5531 -65.5531 -32.3547 -32.3547 -32.3507 -32.3410
   -32.3332 -32.3332 -32.3213 -32.3213 -32.3208 -32.3189 -32.3137 -32.3124
    -9.0764  -8.7344  -8.4379  -8.4379   3.6583   3.6583   3.8157   4.3834
     5.0672   5.0672   5.9847   6.0869   6.0869   6.3150   6.6143   6.6221
    14.0188  15.4055  16.6941  16.6941  18.2906  18.2906

          k = 0.3892-0.1946 0.3892 (  9263 PWs)   bands (ev):

   -65.5554 -65.5541 -65.5541 -65.5535 -32.3590 -32.3574 -32.3573 -32.3518
   -32.3282 -32.3236 -32.3236 -32.3173 -32.3168 -32.3160 -32.3159 -32.3117
    -8.8590  -8.6132  -8.6131  -8.4988   3.3792   3.4529   3.4530   3.7466
     5.3889   5.7696   5.7696   6.2859   6.3714   6.4067   6.4068   6.6842
    14.5596  15.5548  15.5548  15.9817  18.4377  18.5661

          k = 0.3892-0.1946-0.3892 (  9263 PWs)   bands (ev):

   -65.5554 -65.5541 -65.5541 -65.5535 -32.3590 -32.3574 -32.3573 -32.3518
   -32.3282 -32.3236 -32.3236 -32.3173 -32.3168 -32.3160 -32.3159 -32.3117
    -8.8590  -8.6132  -8.6131  -8.4988   3.3792   3.4529   3.4530   3.7466
     5.3889   5.7696   5.7696   6.2859   6.3714   6.4067   6.4068   6.6842
    14.5596  15.5548  15.5548  15.9817  18.4377  18.5661

          k = 0.3892-0.1946-0.1946 (  9237 PWs)   bands (ev):

   -65.5565 -65.5546 -65.5531 -65.5531 -32.3547 -32.3547 -32.3507 -32.3410
   -32.3332 -32.3332 -32.3213 -32.3213 -32.3208 -32.3189 -32.3137 -32.3124
    -9.0764  -8.7344  -8.4379  -8.4379   3.6583   3.6583   3.8157   4.3834
     5.0672   5.0672   5.9847   6.0869   6.0869   6.3150   6.6143   6.6221
    14.0188  15.4055  16.6941  16.6941  18.2906  18.2906

     the Fermi energy is     8.2699 ev

!    total energy              =    -608.50220722 Ry
     estimated scf accuracy    <          5.9E-09 Ry
     smearing contrib. (-TS)   =      -0.00000000 Ry
     internal energy E=F+TS    =    -608.50220722 Ry

     The total energy is F=E-TS. E is the sum of the following terms:
     one-electron contribution =    -313.19043081 Ry
     hartree contribution      =     171.33189107 Ry
     xc contribution           =     -97.65198853 Ry
     ewald contribution        =    -368.89313517 Ry
     DFT-D3 Dispersion         =      -0.09854378 Ry

     convergence has been achieved in   9 iterations

     Forces acting on atoms (cartesian axes, Ry/au):

     atom    1 type  1   force =     0.00000009   -0.00000030    0.00000005
     atom    2 type  1   force =    -0.00000013   -0.00000007   -0.00000010
     atom    3 type  1   force =    -0.00000009    0.00000021    0.00000022
     atom    4 type  1   force =     0.00000004    0.00000011   -0.00000000
     atom    5 type  2   force =     0.00000003    0.00000008   -0.00000014
     atom    6 type  2   force =     0.00000005   -0.00000004   -0.00000002
     atom    7 type  2   force =     0.00000001   -0.00000030    0.00000020
     atom    8 type  2   force =    -0.00000001    0.00000030   -0.00000021

     Total force =     0.000001     Total SCF correction =     0.000003
     SCF correction compared to forces is large: reduce conv_thr to get better values


     Computing stress (Cartesian axis) and pressure

          total   stress  (Ry/bohr**3)                   (kbar)     P=      -99.83
  -0.00067862   0.00000000  -0.00000000          -99.83        0.00       -0.00
   0.00000000  -0.00067862  -0.00000000            0.00      -99.83       -0.00
  -0.00000000  -0.00000000  -0.00067862           -0.00       -0.00      -99.83

 
     init_run     :      3.55s CPU      3.62s WALL (       2 calls)
     electrons    :    207.10s CPU    211.30s WALL (       5 calls)
     update_pot   :      1.24s CPU      1.24s WALL (       3 calls)
     forces       :     19.35s CPU     19.41s WALL (       5 calls)
     stress       :     22.91s CPU     22.98s WALL (       5 calls)

     Called by init_run:
     wfcinit      :      2.71s CPU      2.77s WALL (       2 calls)
     potinit      :      0.31s CPU      0.32s WALL (       2 calls)
     hinit0       :      0.48s CPU      0.49s WALL (       2 calls)

     Called by electrons:
     c_bands      :    165.64s CPU    169.23s WALL (      44 calls)
     sum_band     :     26.48s CPU     27.03s WALL (      44 calls)
     v_of_rho     :      0.40s CPU      0.41s WALL (      49 calls)
     mix_rho      :      0.06s CPU      0.06s WALL (      44 calls)

     Called by c_bands:
     init_us_2    :      1.67s CPU      1.76s WALL (    6300 calls)
     cegterg      :    159.84s CPU    163.03s WALL (    2772 calls)

     Called by *egterg:
     cdiaghg      :     17.89s CPU     18.00s WALL (   10478 calls)
     h_psi        :    131.21s CPU    134.25s WALL (   10793 calls)
     g_psi        :      0.46s CPU      0.47s WALL (    7895 calls)

     Called by h_psi:
     h_psi:calbec :      4.06s CPU      4.14s WALL (   10793 calls)
     vloc_psi     :    123.99s CPU    126.91s WALL (   10793 calls)
     add_vuspsi   :      2.78s CPU      2.82s WALL (   10793 calls)

     General routines
     calbec       :      5.78s CPU      5.87s WALL (   12368 calls)
     fft          :      0.60s CPU      0.61s WALL (     613 calls)
     ffts         :      0.02s CPU      0.02s WALL (      44 calls)
     fftw         :    141.61s CPU    144.86s WALL (  659512 calls)
 
     Parallel routines
     fft_scatt_xy :     17.57s CPU     17.99s WALL (  660169 calls)
     fft_scatt_yz :     78.43s CPU     80.24s WALL (  660169 calls)
 
     PWSCF        :   4m14.31s CPU   4m18.74s WALL

 
   This run was terminated on:  13:38:37   4Feb2024            

=------------------------------------------------------------------------------=
   JOB DONE.
=------------------------------------------------------------------------------=
