# total energy = -14249.8876122 eV	

CRYSTAL	
PRIMVEC	
		7.85999768		0.00000000		-0.62879824	
		0.00000000		7.85999768		0.00000000	
		-0.40191992		0.00000000		5.02399896	
PRIMCOORD
   24 1	
O		1.00281274		2.82496272		1.18940130		 0.00006572		 0.00010625		 0.00047574	
O		6.65273818		5.03503812		0.73740698		 0.00030542		-0.00069000		-0.00016549	
O		2.52526697		6.75496314		3.52019933		-0.00006572		 0.00010625		-0.00047574	
O		4.73534158		1.10503691		3.34339305		-0.00030542		-0.00069000		 0.00016549	
O		0.33411584		1.46384577		3.90854266		 0.00055824		 0.00014926		 0.00002198	
O		6.89218458		6.39615428		3.38389729		 0.00011057		-0.00005458		-0.00049215	
O		1.37877566		7.20903518		0.94627176		 0.00032330		 0.00024846		 0.00043152	
O		6.31108260		0.65096486		0.55168815		-0.00056671		 0.00017544		 0.00052515	
O		3.19396387		5.39384697		0.80105718		-0.00055824		 0.00014926		-0.00002198	
O		4.49589518		2.46615386		0.69690274		-0.00011057		-0.00005458		 0.00049215	
O		2.14930405		3.27903477		3.76332808		-0.00032330		 0.00024846		-0.00043152	
O		5.07699716		4.58096528		3.52911187		 0.00056671		 0.00017544		-0.00052515	
O		-0.32929331		3.92999963		4.11616318		 0.00024020		-0.00006810		-0.00014910	
O		3.85737302		0.00000000		0.59343667		-0.00024020		-0.00006810		 0.00014910	
Ca		2.40311397		1.32313674		2.33831807		-0.00016323		 0.00038528		 0.00012176	
Ca		5.04938665		6.53686252		2.12661622		 0.00022736		 0.00025603		-0.00014211	
Ca		1.12496574		5.25313715		2.37128335		 0.00016323		 0.00038528		-0.00012176	
Ca		6.33869311		2.60686289		1.95418381		-0.00022736		 0.00025603		 0.00014211	
Si		0.72374523		2.83030725		4.61137421		 0.00014186		 0.00012864		 0.00044322	
Si		6.38435973		5.02969280		4.15852515		 0.00020097		-0.00018915		-0.00023385	
Si		2.80433527		6.76030767		0.09822563		-0.00014186		 0.00012864		-0.00044322	
Si		5.00372003		1.09969317		-0.07772434		-0.00020097		-0.00018915		 0.00023385	
Mg		0.00000000		0.00000000		0.00000000		-0.00015068		-0.00044756		-0.00008797	
Mg		3.92999963		3.92999963		-0.31439991		 0.00015068		-0.00044756		 0.00008797	
