# total energy = -9215.11027517 eV

CRYSTAL
PRIMVEC
		5.27713899		0.00000000		0.00001065
		-2.63856949		4.57014981		0.00000000
		0.00001598		0.00000533		7.02407222
PRIMECORD
   18 1
Mg		1.74627813		0.00000586		3.25564248		-0.00029674		-0.00000791		-0.00028647
Mg		-0.87312575		1.51233040		3.25563716		 0.00013826		-0.00028524		-0.00028272
Mg		1.76544161		3.05782367		3.25564302		 0.00015024		 0.00029016		-0.00028075
Si		0.00000959		3.04675358		0.48695136		-0.00002331		 0.00004724		 0.00007376
Si		2.63856843		1.52339996		0.48695562		 0.00001233		-0.00005121		 0.00007387
H		3.42836679		0.00000000		5.17645310		-0.00001015		 0.00000025		 0.00057284
H		-1.71415916		2.96904192		5.17660648		-0.00001985		 0.00003580		-0.00001876
H		0.92441406		1.60112174		5.17669596		-0.00003355		-0.00005904		-0.00033131
H		0.00000000		0.00000000		1.13022507		-0.00000194		-0.00000071		 0.00034091
O		0.00000000		3.04676689		2.07947907		 0.00000335		 0.00000455		-0.00001637
O		2.63857322		1.52338664		2.07948333		 0.00000545		-0.00000141		-0.00001644
O		2.67290195		0.00000000		6.88494273		 0.00052840		 0.00000437		-0.00016834
O		-1.33643074		2.31479505		6.88494486		-0.00025780		 0.00047217		-0.00019807
O		1.30214089		2.25536488		6.88495391		-0.00026417		-0.00047420		-0.00021377
O		3.51774398		0.00000000		4.21671061		 0.00016678		-0.00000088		-0.00032896
O		-1.75886613		3.04647556		4.21652473		-0.00005372		 0.00008800		 0.00032182
O		0.87969804		1.52367212		4.21643419		-0.00003611		-0.00005925		 0.00066568
O		0.00000639		0.00000000		2.09060508		-0.00000747		-0.00000269		 0.00009308
