# total energy = -9214.95382413 eV

CRYSTAL
PRIMVEC
		5.24703644		0.00000000		0.00000533
		-2.62351822		4.54407904		-0.00000533
		0.00001065		0.00000000		6.93725842
PRIMECORD
   18 1
Mg		1.73659547		0.00000000		3.22197311		-0.00001970		 0.00000404		-0.00034540
Mg		-0.86829187		1.50393876		3.22196832		 0.00001000		-0.00003439		-0.00034174
Mg		1.75522848		3.04013549		3.22197098		 0.00000409		 0.00003218		-0.00034291
Si		0.00000000		3.02937538		0.47099094		 0.00000493		 0.00003065		 0.00008532
Si		2.62352355		1.51469994		0.47099413		-0.00001452		-0.00002744		 0.00008549
H		3.41134809		0.00000000		5.13769100		 0.00008042		-0.00000014		 0.00047391
H		-1.70565886		2.95430062		5.13780232		-0.00005997		 0.00010445		 0.00003314
H		0.91785829		1.58976831		5.13776770		-0.00005335		-0.00009326		 0.00017630
H		0.00000000		0.00000000		1.07861294		-0.00000095		 0.00000032		 0.00059359
O		0.00000000		3.02938336		2.05885147		 0.00000280		 0.00000055		-0.00011418
O		2.62352088		1.51469142		2.05885520		 0.00000190		-0.00000214		-0.00011429
O		2.64074889		0.00000000		6.77796363		 0.00000113		-0.00000312		 0.00017943
O		-1.32036326		2.28694753		6.77796523		 0.00000095		 0.00001120		 0.00015280
O		1.30315496		2.25712459		6.77796576		 0.00000481		-0.00001040		 0.00016141
O		3.50527369		0.00000000		4.17910905		-0.00093032		 0.00000044		-0.00053335
O		-1.75263738		3.03566911		4.17896791		 0.00049006		-0.00085075		-0.00004514
O		0.87088457		1.50840833		4.17901531		 0.00048134		 0.00083659		-0.00020369
O		0.00000000		0.00000000		2.03887844		-0.00000363		 0.00000122		 0.00009930
