# total energy = -41275.2553617 eV	

CRYSTAL	
PRIMVEC	
		5.79292491		0.00000000		0.00000000	
		0.00000000		11.61672621		0.00000000	
		0.00000000		0.00000000		8.43457890	
PRIMCOORD
   56 1	
Mg		0.00000000		0.00000000		0.00000000		0.00000000		 0.00000003		-0.00000001	
Mg		0.00000000		5.80836196		0.00000000		-0.00000002		-0.00000002		-0.00000000	
Mg		2.89646303		5.80836196		4.21729059		 0.00000003		-0.00000002		0.00000000	
Mg		2.89646303		0.00000000		4.21729059		-0.00000001		 0.00000002		 0.00000001	
Mg		0.00000000		2.90418070		8.18341816		-0.00000001		-0.00000001		-0.00036974	
Mg		0.00000000		8.71254266		0.25116245		-0.00000000		 0.00000002		 0.00036979	
Mg		2.89646303		8.71254266		3.96612757		 0.00000001		0.00000000		-0.00036978	
Mg		2.89646303		2.90418070		4.46845304		 0.00000001		-0.00000001		 0.00036974	
Mg		1.44823151		1.48256133		2.10864529		-0.00000001		 0.00002635		-0.00000003	
Mg		4.34469511		10.13416203		6.32593531		 0.00000001		-0.00002633		 0.00000003	
Mg		4.34469511		4.32580006		2.10864529		 0.00000002		-0.00002636		-0.00000003	
Mg		1.44823151		7.29092329		6.32593588		-0.00000002		 0.00002635		 0.00000002	
Mg		4.34469511		7.29092329		6.32593588		 0.00000002		 0.00002635		 0.00000002	
Mg		1.44823151		4.32580063		2.10864529		-0.00000002		-0.00002638		-0.00000003	
Mg		1.44823151		10.13416203		6.32593531		-0.00000001		-0.00002633		 0.00000003	
Mg		4.34469511		1.48256133		2.10864529		 0.00000001		 0.00002635		-0.00000005	
Si		0.00000000		1.39443516		5.19661081		 0.00000005		-0.00024613		 0.00000526	
Si		0.00000000		10.22228819		3.23797036		-0.00000000		 0.00024617		-0.00000535	
Si		0.00000000		4.41392680		5.19661081		 0.00000002		 0.00024611		 0.00000528	
Si		0.00000000		7.20279713		3.23797036		-0.00000000		-0.00024616		-0.00000537	
Si		2.89646303		7.20279713		0.97932022		 0.00000001		-0.00024614		 0.00000528	
Si		2.89646303		4.41392623		7.45526038		-0.00000003		 0.00024609		-0.00000519	
Si		2.89646303		10.22228819		0.97932022		-0.00000002		 0.00024615		 0.00000527	
Si		2.89646303		1.39443516		7.45526038		-0.00000000		-0.00024609		-0.00000519	
O		0.00000000		2.90418070		1.81482228		-0.00000002		-0.00000004		-0.00001130	
O		0.00000000		8.71254266		6.61975890		 0.00000003		 0.00000001		 0.00001122	
O		2.89646303		8.71254266		6.03211287		-0.00000003		-0.00000003		-0.00001132	
O		2.89646303		2.90418070		2.40246774		 0.00000003		 0.00000005		 0.00001141	
O		0.00000000		2.90418070		6.03046677		-0.00000001		-0.00000001		 0.00016102	
O		0.00000000		8.71254266		2.40411384		 0.00000001		 0.00000001		-0.00016101	
O		2.89646303		8.71254266		1.81317618		-0.00000000		-0.00000001		 0.00016104	
O		2.89646303		2.90418070		6.62140443		-0.00000000		 0.00000002		-0.00016104	
O		0.00000000		11.49153072		2.16433844		-0.00000002		 0.00006209		-0.00003393	
O		0.00000000		0.12519320		6.27024274		-0.00000000		-0.00006209		 0.00003396	
O		0.00000000		5.93355517		2.16433844		-0.00000002		-0.00006209		-0.00003393	
O		0.00000000		5.68316876		6.27024274		-0.00000000		 0.00006209		 0.00003393	
O		2.89646303		5.68316876		6.38162846		-0.00000000		 0.00006214		-0.00003399	
O		2.89646303		5.93355517		2.05295215		 0.00000002		-0.00006213		 0.00003396	
O		2.89646303		0.12519320		6.38162846		-0.00000002		-0.00006213		-0.00003398	
O		2.89646303		11.49153072		2.05295215		 0.00000002		 0.00006212		 0.00003398	
O		1.51664614		1.42604884		8.37048036		 0.00010732		-0.00027934		 0.00001921	
O		4.27628048		10.19067452		0.06410025		-0.00010726		 0.00027934		-0.00001926	
O		4.27628048		4.38231256		8.37048036		-0.00010732		 0.00027932		 0.00001923	
O		1.51664614		7.23441080		0.06410025		 0.00010729		-0.00027932		-0.00001924	
O		4.27628048		7.23441080		0.06410082		-0.00010729		-0.00027935		-0.00001926	
O		1.51664614		4.38231256		8.37048036		 0.00010735		 0.00027934		 0.00001921	
O		1.51664614		10.19067452		0.06410082		 0.00010729		 0.00027936		-0.00001928	
O		4.27628048		1.42604941		8.37048036		-0.00010731		-0.00027937		 0.00001925	
O		4.41310917		7.23441080		4.15318977		 0.00010724		-0.00027932		 0.00001930	
O		1.37981746		4.38231256		4.28139084		-0.00010733		 0.00027935		-0.00001924	
O		1.37981689		10.19067452		4.15318977		-0.00010724		 0.00027929		 0.00001927	
O		4.41310917		1.42604941		4.28139084		 0.00010729		-0.00027932		-0.00001924	
O		1.37981746		1.42604941		4.28139084		-0.00010731		-0.00027932		-0.00001927	
O		4.41310917		10.19067452		4.15318977		 0.00010726		 0.00027933		 0.00001928	
O		4.41310917		4.38231256		4.28139084		 0.00010728		 0.00027935		-0.00001928	
O		1.37981746		7.23441137		4.15318977		-0.00010728		-0.00027935		 0.00001930	
