# total energy = -41274.1303455 eV	

CRYSTAL	
PRIMVEC	
		5.85678016		0.00000000		0.00000000	
		0.00000000		11.74592382		0.00000000	
		0.00000000		0.00000000		8.59580385	
PRIMCOORD
   56 1	
Mg		0.00000000		0.00000000		0.00000000		-0.00000002		-0.00000003		 0.00000004	
Mg		0.00000000		5.87296305		0.00000000		-0.00000004		 0.00000001		 0.00000002	
Mg		2.92839008		5.87296305		4.29790250		-0.00000001		 0.00000002		0.00000000	
Mg		2.92839008		0.00000000		4.29790250		 0.00000006		0.00000000		-0.00000002	
Mg		0.00000000		2.93648153		8.33489532		-0.00000000		 0.00000001		-0.00059541	
Mg		0.00000000		8.80944458		0.26090968		-0.00000004		 0.00000001		 0.00059536	
Mg		2.92839008		8.80944458		4.03699339		 0.00000003		-0.00000002		-0.00059537	
Mg		2.92839008		2.93648153		4.55881217		 0.00000002		 0.00000002		 0.00059540	
Mg		1.46419504		1.49681722		2.14895096		-0.00000003		-0.00009473		 0.00000001	
Mg		4.39258569		10.24910945		6.44685403		-0.00000001		 0.00009464		-0.00000001	
Mg		4.39258569		4.37614640		2.14895096		 0.00000003		 0.00009473		 0.00000006	
Mg		1.46419561		7.36978028		6.44685403		0.00000000		-0.00009468		-0.00000006	
Mg		4.39258569		7.36978028		6.44685403		 0.00000002		-0.00009466		-0.00000001	
Mg		1.46419504		4.37614640		2.14895096		-0.00000003		 0.00009471		 0.00000004	
Mg		1.46419504		10.24910945		6.44685403		 0.00000001		 0.00009466		 0.00000001	
Mg		4.39258569		1.49681722		2.14895096		 0.00000002		-0.00009475		 0.00000003	
Si		0.00000000		1.41279462		5.29116581		 0.00000007		-0.00056801		-0.00029490	
Si		0.00000000		10.33313149		3.30463918		-0.00000001		 0.00056786		 0.00029510	
Si		0.00000000		4.46016844		5.29116581		 0.00000008		 0.00056806		-0.00029483	
Si		0.00000000		7.28575767		3.30463918		-0.00000006		-0.00056792		 0.00029503	
Si		2.92839065		7.28575767		0.99326331		0.00000000		-0.00056784		-0.00029517	
Si		2.92839065		4.46016844		7.60254168		-0.00000007		 0.00056797		 0.00029499	
Si		2.92839008		10.33313149		0.99326388		 0.00000006		 0.00056787		-0.00029512	
Si		2.92839065		1.41279462		7.60254168		-0.00000007		-0.00056798		 0.00029494	
O		0.00000000		2.93648153		1.82941833		-0.00000001		-0.00000004		 0.00030323	
O		0.00000000		8.80944458		6.76638666		-0.00000001		 0.00000002		-0.00030316	
O		2.92839065		8.80944458		6.12732140		 0.00000003		-0.00000000		 0.00030305	
O		2.92839008		2.93648153		2.46848359		0.00000000		-0.00000002		-0.00030310	
O		0.00000000		2.93648153		6.12055184		-0.00000007		-0.00000001		 0.00007895	
O		0.00000000		8.80944458		2.47525315		-0.00000000		 0.00000003		-0.00007910	
O		2.92839008		8.80944458		1.82264934		 0.00000002		 0.00000004		 0.00007899	
O		2.92839008		2.93648153		6.77315565		 0.00000007		-0.00000001		-0.00007916	
O		0.00000000		11.60611234		2.21914045		-0.00000002		 0.00056702		 0.00046469	
O		0.00000000		0.13981376		6.37666454		-0.00000008		-0.00056682		-0.00046470	
O		0.00000000		6.01277738		2.21914045		0.00000000		-0.00056696		 0.00046475	
O		0.00000000		5.73314929		6.37666454		-0.00000005		 0.00056681		-0.00046480	
O		2.92839008		5.73314929		6.51704352		 0.00000005		 0.00056685		 0.00046466	
O		2.92839065		6.01277681		2.07876147		 0.00000004		-0.00056699		-0.00046458	
O		2.92839065		0.13981376		6.51704352		 0.00000004		-0.00056684		 0.00046469	
O		2.92839065		11.60611234		2.07876204		 0.00000001		 0.00056699		-0.00046460	
O		1.53927381		1.44041128		8.52359962		 0.00000982		-0.00052710		 0.00026864	
O		4.31750692		10.30551482		0.07220537		-0.00000985		 0.00052719		-0.00026850	
O		4.31750692		4.43255177		8.52359962		-0.00000983		 0.00052710		 0.00026863	
O		1.53927438		7.31337433		0.07220537		 0.00000981		-0.00052716		-0.00026854	
O		4.31750692		7.31337433		0.07220537		-0.00000987		-0.00052718		-0.00026850	
O		1.53927438		4.43255177		8.52359962		 0.00000985		 0.00052709		 0.00026866	
O		1.53927381		10.30551482		0.07220537		 0.00000989		 0.00052712		-0.00026853	
O		4.31750692		1.44041128		8.52359962		-0.00000984		-0.00052704		 0.00026861	
O		4.46766446		7.31337433		4.22569712		 0.00000984		-0.00052721		 0.00026853	
O		1.38911627		4.43255177		4.37010787		-0.00000984		 0.00052709		-0.00026863	
O		1.38911627		10.30551482		4.22569712		-0.00000989		 0.00052722		 0.00026859	
O		4.46766389		1.44041128		4.37010844		 0.00000983		-0.00052710		-0.00026866	
O		1.38911627		1.44041128		4.37010844		-0.00000989		-0.00052716		-0.00026871	
O		4.46766446		10.30551482		4.22569712		 0.00000989		 0.00052721		 0.00026856	
O		4.46766389		4.43255177		4.37010844		 0.00000987		 0.00052705		-0.00026868	
O		1.38911627		7.31337433		4.22569712		-0.00000983		-0.00052716		 0.00026859	
