# total energy = -21541.2060366 eV

CRYSTAL
PRIMVEC
		5.18479989		0.00000000		0.00000000
		0.00000000		8.92299913		-1.42768131
		-0.14435001		-1.58078327		9.20590773
PRIMECORD
   42 1
Mg		0.00000000		0.00000000		0.00000000		0.00000000		0.00000000		0.00000000
Mg		2.59239994		4.46150008		-0.71384014		0.00000000		0.00000000		0.00000000
Mg		2.59239994		1.48648316		-0.23783714		 0.00058366		 0.00014862		-0.00075334
Mg		2.59239994		7.43651804		-1.18984313		-0.00058366		-0.00014862		 0.00075334
Mg		0.00000000		5.94798273		-0.95167676		 0.00058966		 0.00014942		-0.00073730
Mg		0.00000000		2.97501692		-0.47600300		-0.00058966		-0.00014942		 0.00073730
Si		4.28040591		1.02861608		2.44073884		 0.00012104		-0.00006221		-0.00042407
Si		0.76004293		6.31360082		5.33748810		-0.00012104		 0.00006221		 0.00042407
Si		1.68800597		5.49011668		1.72689871		 0.00015018		 0.00002913		-0.00047756
Si		3.35244287		1.85210074		6.05132772		-0.00015018		-0.00002913		 0.00047756
Si		1.68800597		2.51286771		2.20325894		 0.00008551		-0.00040575		 0.00035485
Si		3.35244287		4.82934867		5.57496800		-0.00008551		 0.00040575		-0.00035485
Si		4.28040591		6.97436779		1.48941880		 0.00010049		-0.00057397		 0.00043604
Si		0.76004293		0.36784911		6.28880762		-0.00010049		 0.00057397		-0.00043604
O		1.71272606		2.78572713		0.60715407		 0.00021911		 0.00008900		 0.00050802
O		3.32772382		4.55649080		7.17107184		-0.00021911		-0.00008900		-0.00050802
O		4.30512600		7.24722670		-0.10668607		 0.00022062		 0.00009149		 0.00045508
O		0.73532387		0.09499124		7.88491197		-0.00022062		-0.00009149		-0.00045508
O		4.30512600		1.30406272		0.84422074		-0.00022647		 0.00059713		-0.00031197
O		0.73532387		6.03815469		6.93400568		 0.00022647		-0.00059713		 0.00031197
O		1.71272606		5.76556280		0.13038113		-0.00022646		 0.00059757		-0.00032117
O		3.32772382		1.57665513		7.64784581		 0.00022646		-0.00059757		 0.00032117
O		1.71012899		-0.17799625		1.03658512		-0.00047865		-0.00025104		 0.00027509
O		3.33031985		-1.40278701		8.16932158		 0.00047865		 0.00025104		-0.00027509
O		4.30252893		4.28350383		0.32274498		-0.00048052		-0.00024237		 0.00042259
O		0.73792094		3.05871411		7.45548196		 0.00048052		 0.00024237		-0.00042259
O		1.77272715		3.91123001		2.49073587		-0.00015452		 0.00023701		-0.00031685
O		3.26772168		3.43098792		5.28749003		 0.00015452		-0.00023701		 0.00031685
O		4.36512710		-0.55027007		3.20457601		-0.00015334		 0.00045094		-0.00035663
O		0.67532174		-1.03051216		6.00132965		 0.00015334		-0.00045094		 0.00035663
O		2.93016995		1.59881911		2.86788392		 0.00022141		 0.00029717		 0.00021611
O		2.11027888		5.74339882		4.91034302		-0.00022141		-0.00029717		-0.00021611
O		0.33777001		6.06031868		2.15404378		 0.00011589		 0.00035665		 0.00018614
O		4.70267986		1.28189874		5.62418264		-0.00011589		-0.00035665		-0.00018614
O		0.33771816		1.75961116		2.84215694		 0.00015441		-0.00048718		 0.00035130
O		4.70273067		5.58260677		4.93606896		-0.00015441		 0.00048718		-0.00035130
O		2.93011914		6.22111073		2.12831680		 0.00018362		-0.00048148		 0.00032607
O		2.11033073		1.12110617		5.64990962		-0.00018362		 0.00048148		-0.00032607
H		1.69733912		-0.30724709		1.86661506		-0.00029861		 0.00076421		 0.00028279
H		3.34311075		7.64946399		5.91161188		 0.00029861		-0.00076421		-0.00028279
H		4.28973907		4.15425299		1.15277493		-0.00029896		 0.00075318		 0.00015053
H		0.75071081		3.18796391		6.62545201		 0.00029896		-0.00075318		-0.00015053
