# total energy = -21541.5900255 eV

CRYSTAL
PRIMVEC
		5.18479989		0.00000000		0.00000000
		0.00000000		8.92299913		-1.07075969
		-0.14435001		-1.21325354		9.20147991
PRIMECORD
   42 1
Mg		0.00000000		0.00000000		0.00000000		0.00000000		0.00000000		0.00000000
Mg		2.59239994		4.46150008		-0.53537984		0.00000000		0.00000000		0.00000000
Mg		2.59239994		1.48648316		-0.17837786		 0.00029741		 0.00044596		-0.00026791
Mg		2.59239994		7.43651804		-0.89238183		-0.00029741		-0.00044596		 0.00026791
Mg		0.00000000		5.94798273		-0.71375822		 0.00029301		 0.00043367		-0.00027309
Mg		0.00000000		2.97501692		-0.35700199		-0.00029301		-0.00043367		 0.00027309
Si		4.28040591		1.13556709		2.49899577		 0.00037632		 0.00011270		 0.00033336
Si		0.76004293		6.57417901		5.63172393		-0.00037632		-0.00011270		-0.00033336
Si		1.68800597		5.59706666		1.96361593		 0.00044025		-0.00010147		 0.00025906
Si		3.35244287		2.11267789		6.16710378		-0.00044025		 0.00010147		-0.00025906
Si		1.68800597		2.61981872		2.32088597		 0.00029657		 0.00024122		 0.00000482
Si		3.35244287		5.08992686		5.80983374		-0.00029657		-0.00024122		-0.00000482
Si		4.28040591		7.08131880		1.78550613		 0.00028501		 0.00013256		 0.00008170
Si		0.76004293		0.62842678		6.34521410		-0.00028501		-0.00013256		-0.00008170
O		1.71272606		2.82894814		0.72549920		 0.00017878		-0.00006685		 0.00018178
O		3.32772382		4.88079796		7.40522103		-0.00017878		 0.00006685		-0.00018178
O		4.30512600		7.29044771		0.19011883		 0.00017876		-0.00004432		 0.00016421
O		0.73532387		0.41929788		7.94060087		-0.00017876		 0.00004432		-0.00016421
O		4.30512600		1.34728373		0.90329895		 0.00076387		 0.00020015		 0.00028636
O		0.73532387		6.36246185		7.22742076		-0.00076387		-0.00020015		-0.00028636
O		1.71272606		5.80878381		0.36791807		 0.00076511		 0.00023825		 0.00033629
O		3.32772382		1.90096177		7.76280060		-0.00076511		-0.00023825		-0.00033629
O		1.71012899		-0.13661222		1.03608686		 0.00036985		 0.00026279		-0.00086111
O		3.33031985		-1.07664184		8.16539306		-0.00036985		-0.00026279		 0.00086111
O		4.30252893		4.32488786		0.50070701		 0.00036205		 0.00036506		-0.00018486
O		0.73792094		3.38485772		7.63001269		-0.00036205		-0.00036506		 0.00018486
O		1.77272715		4.03916599		2.66765472		 0.00000600		 0.00009122		 0.00030885
O		3.26772168		3.67057908		5.46306499		-0.00000600		-0.00009122		-0.00030885
O		4.36512710		-0.42233410		3.20303508		 0.00001484		 0.00002832		 0.00034533
O		0.67532174		-0.79092100		5.99844483		-0.00001484		-0.00002832		-0.00034533
O		2.93016995		1.72704907		2.95235416		 0.00046961		 0.00006615		-0.00063643
O		2.11027888		5.98269600		5.17836607		-0.00046961		-0.00006615		 0.00063643
O		0.33777001		6.18854863		2.41697379		 0.00028002		 0.00018155		-0.00063698
O		4.70267986		1.52119592		5.71374591		-0.00028002		-0.00018155		 0.00063698
O		0.33771816		1.88784215		2.93305892		 0.00031363		-0.00012576		-0.00006508
O		4.70273067		5.82190395		5.19766078		-0.00031363		 0.00012576		 0.00006508
O		2.93011914		6.34934172		2.39767908		 0.00046098		-0.00002789		-0.00006662
O		2.11033073		1.36040387		5.73304063		-0.00046098		 0.00002789		 0.00006662
H		1.69733912		-0.23263886		1.86626198		-0.00008071		-0.00025760		 0.00009880
H		3.34311075		7.94238393		6.26445773		 0.00008071		 0.00025760		-0.00009880
H		4.28973907		4.22886174		1.33088214		-0.00008370		-0.00034395		-0.00051816
H		0.75071081		3.48088384		6.79983809		 0.00008370		 0.00034395		 0.00051816
