# total energy = -21541.1187956 eV

CRYSTAL
PRIMVEC
		5.18479989		0.00000000		0.00000000
		0.00000000		8.92299913		1.42768131
		-0.14435001		1.35943898		9.17049037
PRIMECORD
   42 1
Mg		0.00000000		0.00000000		0.00000000		0.00000000		0.00000000		0.00000000
Mg		2.59239994		4.46150008		0.71384014		0.00000000		0.00000000		0.00000000
Mg		2.59239994		1.48648316		0.23783714		 0.00009196		 0.00074190		-0.00003820
Mg		2.59239994		7.43651804		1.18984313		-0.00009196		-0.00074190		 0.00003820
Mg		0.00000000		5.94798273		0.95167676		 0.00009550		 0.00078323		-0.00000180
Mg		0.00000000		2.97501692		0.47600300		-0.00009550		-0.00078323		 0.00000180
Si		4.28040591		1.88422213		2.90679273		 0.00016089		-0.00033953		-0.00007682
Si		0.76004293		8.39821961		7.69137895		-0.00016089		 0.00033953		 0.00007682
Si		1.68800597		6.34572169		3.62063287		 0.00013983		 0.00012547		 0.00012533
Si		3.35244287		3.93672004		6.97753881		-0.00013983		-0.00012547		-0.00012533
Si		1.68800597		3.36847272		3.14427315		 0.00002889		 0.00023552		 0.00008758
Si		3.35244287		6.91396798		7.45389904		-0.00002889		-0.00023552		-0.00008758
Si		4.28040591		7.82997384		3.85811277		 0.00006308		 0.00022543		-0.00005954
Si		0.76004293		2.45246790		6.74005890		-0.00006308		-0.00022543		 0.00005954
O		1.71272606		3.13149677		1.55390993		-0.00017062		-0.00012433		 0.00002694
O		3.32772382		7.15094393		9.04426175		 0.00017062		 0.00012433		-0.00002694
O		4.30512600		7.59299685		2.26775007		-0.00017485		-0.00013682		 0.00001055
O		0.73532387		2.68944384		8.33042161		 0.00017485		 0.00013682		-0.00001055
O		4.30512600		1.64983288		1.31684377		 0.00011921		 0.00007259		 0.00007156
O		0.73532387		8.63260782		9.28132791		-0.00011921		-0.00007259		-0.00007156
O		1.71272606		6.11133296		2.03068391		 0.00012535		 0.00005900		-0.00000546
O		3.32772382		4.17110774		8.56748777		-0.00012535		-0.00005900		 0.00000546
O		1.71012899		0.15307292		1.03259697		-0.00030044		 0.00020067		 0.00014285
O		3.33031985		1.20636813		8.13789495		 0.00030044		-0.00020067		-0.00014285
O		4.30252893		4.61457300		1.74643711		-0.00030981		 0.00012858		 0.00059793
O		0.73792094		5.66786769		8.85173457		 0.00030981		-0.00012858		-0.00059793
O		1.77272715		4.93472195		3.90608773		 0.00030439		-0.00021222		 0.00022674
O		3.26772168		5.34771978		6.69208395		-0.00030439		 0.00021222		-0.00022674
O		4.36512710		0.47322083		3.19224811		 0.00028939		 0.00021620		 0.00027583
O		0.67532174		0.88622022		5.97824381		-0.00028939		-0.00021620		-0.00027583
O		2.93016995		2.62466288		3.54364118		 0.00020735		 0.00037061		-0.00023248
O		2.11027888		7.65777885		7.05453102		-0.00020735		-0.00037061		 0.00023248
O		0.33777001		7.08616296		4.25748080		 0.00042995		 0.00024170		-0.00028622
O		4.70267986		3.19627877		6.34069088		-0.00042995		-0.00024170		 0.00028622
O		0.33771816		2.78545493		3.56936816		 0.00043731		-0.00014731		 0.00000397
O		4.70273067		7.49698680		7.02880404		-0.00043731		 0.00014731		-0.00000397
O		2.93011914		7.24695501		4.28320778		 0.00013467		-0.00033016		-0.00005602
O		2.11033073		3.03548568		6.31496390		-0.00013467		 0.00033016		 0.00005602
H		1.69733912		0.28961877		1.86379401		-0.00035656		-0.00045047		-0.00008469
H		3.34311075		9.99282296		8.73437766		 0.00035656		 0.00045047		 0.00008469
H		4.28973907		4.75111886		2.57763415		-0.00035547		-0.00037718		-0.00049782
H		0.75071081		5.53132288		8.02053804		 0.00035547		 0.00037718		 0.00049782
