# total energy = -24712.976116 eV	

CRYSTAL	
PRIMVEC	
		10.01591803		-0.00002782		0.00000000	
		0.00000000		10.92566528		0.00000000	
		0.00000000		0.00000000		5.62446451	
PRIMCOORD
   40 1	
Mg		0.00000000		8.19809827		1.40611752		 0.00000671		-0.00067892		-0.00000207	
Mg		0.00000000		2.72756887		4.21834699		-0.00000674		 0.00067527		 0.00000226	
Mg		5.00795994		8.19038853		4.21834885		-0.00000659		 0.00027630		-0.00000206	
Mg		5.00795438		2.73525172		1.40611474		 0.00000657		-0.00027243		 0.00000207	
Mg		0.00000000		2.73042131		1.40611659		-0.00000668		 0.00059604		-0.00000212	
Mg		0.00000000		8.19525696		4.21834699		 0.00000663		-0.00059962		 0.00000205	
Mg		5.00795438		2.73238815		4.21834792		 0.00000655		-0.00017145		-0.00000205	
Mg		5.00795902		8.19324004		1.40611474		-0.00000655		 0.00017480		 0.00000206	
Si		2.50602749		0.91442280		-0.00402735		-0.00046822		 0.00079325		 0.00058192	
Si		7.50983861		10.01065827		5.62850484		 0.00059918		 0.00062430		-0.00060414	
Si		2.50177480		4.54834771		2.80821047		 0.00089485		-0.00070887		 0.00058614	
Si		7.51408202		6.37785171		2.81626702		-0.00074604		-0.00070488		-0.00060806	
Si		7.50990352		0.91438571		2.81625775		 0.00042740		 0.00084649		-0.00058148	
Si		2.50605810		10.01069907		2.80819100		-0.00055776		 0.00056503		 0.00060338	
Si		7.51412282		4.54836533		5.62848352		-0.00085383		-0.00076811		-0.00058576	
Si		2.50184714		6.37783409		-0.00403477		 0.00070644		-0.00064460		 0.00060780	
O		1.12930602		1.83303801		0.00085313		-0.00050824		-0.00037346		-0.00033578	
O		8.88651835		9.09270609		5.62360859		 0.00075893		 0.00008748		 0.00033940	
O		3.87871513		3.62972137		2.81308261		 0.00031196		 0.00049023		-0.00033315	
O		6.13734107		7.29577236		2.81138005		-0.00070865		-0.00011117		 0.00033648	
O		8.88660274		1.83301205		2.81137819		 0.00053028		-0.00036153		 0.00033545	
O		1.12939875		9.09273113		2.81308539		-0.00077807		 0.00007839		-0.00033922	
O		6.13720568		3.62972230		5.62361138		-0.00033292		 0.00047978		 0.00033302	
O		3.87856490		7.29577143		0.00085128		 0.00072888		-0.00010157		-0.00033628	
O		3.88276473		1.83199199		0.00200579		 0.00032436		-0.00009498		-0.00082281	
O		6.13327848		9.09381146		5.62245872		-0.00071675		-0.00028670		 0.00082450	
O		1.12527681		3.63089443		2.81424361		-0.00057536		-0.00005600		-0.00082251	
O		8.89056240		7.29463083		2.81021812		 0.00081774		 0.00034169		 0.00082530	
O		6.13314124		1.83199478		2.81022554		-0.00030461		-0.00011060		 0.00082270	
O		3.88264418		9.09380960		2.81423619		 0.00069399		-0.00026844		-0.00082446	
O		8.89064493		3.63086847		5.62245037		 0.00055448		-0.00003890		 0.00082259	
O		1.12534358		7.29465772		0.00201321		-0.00079764		 0.00032492		-0.00082539	
O		2.50375371		10.91994279		1.39825663		 0.00028492		-0.00065663		 0.00080470	
O		7.51216247		0.00605169		4.22591021		-0.00028555		-0.00022339		 0.00018286	
O		2.50422200		5.46854957		4.21050001		-0.00033604		 0.00065409		 0.00079312	
O		7.51168768		5.45673551		1.41367054		 0.00033677		 0.00022490		 0.00019198	
O		7.51215876		10.91995485		1.41399417		-0.00028503		-0.00070141		-0.00086084	
O		2.50375278		0.00603963		4.21076430		 0.00028531		-0.00017840		-0.00012636	
O		7.51169232		5.46851340		4.22621530		 0.00033584		 0.00070221		-0.00085329	
O		2.50422571		5.45677168		1.39854039		-0.00033652		 0.00017691		-0.00013197	
