# total energy = -49448.010831 eV

CRYSTAL
PRIMVEC
		5.08939982		0.00000000		0.00000000
		0.00000000		13.96800031		0.00000000
		0.00000000		0.00000000		8.69560094
PRIMECORD
   70 1
Si		2.54469991		0.00000000		0.00000000		0.00000000		0.00000000		0.00000000
Si		0.00000000		6.98399965		4.34779996		0.00000000		0.00000000		0.00000000
Si		2.47349870		5.25923157		0.00000000		-0.00030132		 0.00006683		0.00000000
Si		2.61590112		8.70876773		0.00000000		 0.00030132		-0.00006683		0.00000000
Si		0.07120121		12.24323172		4.34779996		 0.00030132		 0.00006683		0.00000000
Si		5.01819861		1.72476910		4.34779996		-0.00030132		-0.00006683		-0.00000000
Mg		0.86219522		2.42358797		0.00000000		-0.00021117		 0.00038749		0.00000000
Mg		4.22720460		11.54441183		0.00000000		 0.00021117		-0.00038749		0.00000000
Mg		1.68250469		9.40758762		4.34779996		 0.00021117		 0.00038749		0.00000000
Mg		3.40689513		4.56041168		4.34779996		-0.00021117		-0.00038749		0.00000000
Mg		0.80570289		4.51808975		2.81563513		-0.00016986		-0.00012417		 0.00015351
Mg		4.28369694		9.44991056		5.87996480		 0.00016986		 0.00012417		-0.00015351
Mg		4.28369694		9.44991056		2.81563513		 0.00016986		 0.00012417		 0.00015351
Mg		0.80570289		4.51808975		5.87996480		-0.00016986		-0.00012417		-0.00015351
Mg		1.73899703		11.50208838		1.53216483		 0.00016986		-0.00012417		-0.00015351
Mg		3.35040280		2.46591091		7.16343458		-0.00016986		 0.00012417		 0.00015351
Mg		3.35040280		2.46591091		1.53216483		-0.00016986		 0.00012417		-0.00015351
Mg		1.73899703		11.50208838		7.16343458		 0.00016986		-0.00012417		 0.00015351
Mg		2.54469991		6.98399965		2.79363467		0.00000000		0.00000000		-0.00031560
Mg		2.54469991		6.98399965		5.90196373		0.00000000		0.00000000		 0.00031560
Mg		0.00000000		0.00000000		1.55416478		0.00000000		0.00000000		 0.00031560
Mg		0.00000000		0.00000000		7.14143463		0.00000000		0.00000000		-0.00031560
Mg		2.54469991		0.00000000		2.97293881		0.00000000		0.00000000		 0.00053330
Mg		2.54469991		0.00000000		5.72266061		0.00000000		0.00000000		-0.00053330
Mg		0.00000000		6.98399965		1.37486116		0.00000000		0.00000000		-0.00053330
Mg		0.00000000		6.98399965		7.32073775		0.00000000		0.00000000		 0.00053330
O		1.69075002		5.77129797		1.35755720		-0.00032923		 0.00024413		-0.00035581
O		3.39864980		8.19670184		7.33804273		 0.00032923		-0.00024413		 0.00035581
O		3.39864980		8.19670184		1.35755720		 0.00032923		-0.00024413		-0.00035581
O		1.69075002		5.77129797		7.33804273		-0.00032923		 0.00024413		 0.00035581
O		0.85394989		12.75529863		2.99024277		 0.00032923		 0.00024413		 0.00035581
O		4.23544892		1.21270219		5.70535665		-0.00032923		-0.00024413		-0.00035581
O		4.23544892		1.21270219		2.99024277		-0.00032923		-0.00024413		 0.00035581
O		0.85394989		12.75529863		5.70535665		 0.00032923		 0.00024413		-0.00035581
O		2.50953216		3.62092475		0.00000000		 0.00022195		 0.00005217		0.00000000
O		2.57986715		10.34707454		0.00000000		-0.00022195		-0.00005217		0.00000000
O		0.03516775		10.60492440		4.34779996		-0.00022195		 0.00005217		-0.00000000
O		5.05423207		3.36307591		4.34779996		 0.00022195		-0.00005217		-0.00000000
O		4.02780191		5.78973585		0.00000000		-0.00063108		 0.00001894		0.00000000
O		1.06159791		8.17826396		0.00000000		 0.00063108		-0.00001894		0.00000000
O		3.60629782		12.77373549		4.34779996		 0.00063108		 0.00001894		0.00000000
O		1.48310200		1.19426380		4.34779996		-0.00063108		-0.00001894		0.00000000
O		1.81386210		1.02064198		1.25773218		 0.00001380		-0.00021921		-0.00031694
O		3.27553773		12.94735833		7.43786774		-0.00001380		 0.00021921		 0.00031694
O		3.27553773		12.94735833		1.25773218		-0.00001380		 0.00021921		-0.00031694
O		1.81386210		1.02064198		7.43786774		 0.00001380		-0.00021921		 0.00031694
O		0.73083781		8.00464163		3.09006778		-0.00001380		-0.00021921		 0.00031694
O		4.35856201		5.96335868		5.60553062		 0.00001380		 0.00021921		-0.00031694
O		4.35856201		5.96335868		3.09006778		 0.00001380		 0.00021921		 0.00031694
O		0.73083781		8.00464163		5.60553062		-0.00001380		-0.00021921		-0.00031694
O		5.00058979		3.51784100		1.38433914		 0.00010408		-0.00015960		 0.00023430
O		0.08881003		10.45015881		7.31125976		-0.00010408		 0.00015960		-0.00023430
O		0.08881003		10.45015881		1.38433914		-0.00010408		 0.00015960		 0.00023430
O		5.00058979		3.51784100		7.31125976		 0.00010408		-0.00015960		-0.00023430
O		2.63350994		10.50184065		2.96345980		-0.00010408		-0.00015960		-0.00023430
O		2.45588988		3.46615865		5.73213860		 0.00010408		 0.00015960		 0.00023430
O		2.45588988		3.46615865		2.96345980		 0.00010408		 0.00015960		-0.00023430
O		2.63350994		10.50184065		5.73213860		-0.00010408		-0.00015960		 0.00023430
O		0.99589376		12.86159431		0.00000000		 0.00046821		 0.00076722		-0.00000000
O		4.09350606		1.10640498		0.00000000		-0.00046821		-0.00076722		-0.00000000
O		1.54880615		5.87759466		4.34779996		-0.00046821		 0.00076722		0.00000000
O		3.54059367		8.09040463		4.34779996		 0.00046821		-0.00076722		0.00000000
H		4.69802498		4.22671703		0.94347294		-0.00031759		 0.00062966		 0.00021666
H		0.39137485		9.74128277		7.75212648		 0.00031759		-0.00062966		-0.00021666
H		0.39137485		9.74128277		0.94347294		 0.00031759		-0.00062966		 0.00021666
H		4.69802498		4.22671703		7.75212648		-0.00031759		 0.00062966		-0.00021666
H		2.93607476		11.21071668		3.40432702		 0.00031759		 0.00062966		-0.00021666
H		2.15332506		2.75728312		5.29127188		-0.00031759		-0.00062966		 0.00021666
H		2.15332506		2.75728312		3.40432702		-0.00031759		-0.00062966		-0.00021666
H		2.93607476		11.21071668		5.29127188		 0.00031759		 0.00062966		 0.00021666
