# total energy = -22469.278575 eV

CRYSTAL
PRIMVEC
		9.73970004		0.00000000		0.00000000
		0.00000000		8.91739665		-0.35669703
		-1.43536881		-0.20201112		5.05028771
PRIMECORD
   40 1
Mg		-0.35884269		8.04720997		0.93866164		-0.00040933		 0.00041396		-0.00012369
Mg		-1.07652807		0.66817946		3.75492513		 0.00040933		-0.00041396		 0.00012369
Mg		4.51100733		3.58850969		1.11701016		-0.00041120		 0.00038815		-0.00011867
Mg		3.79332195		5.12687876		3.57657661		 0.00041120		-0.00038815		 0.00011867
Ca		-0.35884269		2.63791497		1.15503395		-0.00014194		-0.00016535		-0.00005794
Ca		-1.07652807		6.07747446		3.53855282		 0.00014194		 0.00016535		 0.00005794
Ca		4.51100733		7.09661524		0.97668641		-0.00015220		-0.00012393		-0.00006446
Ca		3.79332195		1.61877418		3.71690134		 0.00015220		 0.00012393		 0.00006446
Si		2.45818828		0.78467893		1.12509216		-0.00071805		 0.00062138		-0.00005941
Si		5.84614100		7.93071049		3.56849461		 0.00071805		-0.00062138		 0.00005941
Si		6.56382638		0.77633980		1.33356752		 0.00065843		-0.00040545		 0.00000372
Si		1.74050290		7.93904865		3.36001925		-0.00065843		 0.00040545		-0.00000372
Si		7.32803928		5.24338018		0.94674365		-0.00020232		 0.00093870		 0.00015958
Si		0.97629098		3.47201022		3.74684313		 0.00020232		-0.00093870		-0.00015958
Si		1.69397636		5.23504105		1.15521998		 0.00024617		-0.00019304		-0.00015871
Si		6.61035293		3.48034935		3.53836680		-0.00024617		 0.00019304		 0.00015871
O		0.92170288		0.74626458		0.68543626		-0.00014027		-0.00040948		-0.00048585
O		7.38262640		7.96912387		4.00815149		 0.00014027		 0.00040948		 0.00048585
O		8.10031081		0.70257424		1.77771148		 0.00030720		 0.00027162		-0.00026827
O		0.20401847		8.01281519		2.91587627		-0.00030720		-0.00027162		 0.00026827
O		5.79155387		5.20496486		0.50708774		-0.00044904		-0.00044649		-0.00058895
O		2.51277638		3.51042360		4.18649903		 0.00044904		 0.00044649		 0.00058895
O		3.23046079		5.16127451		1.59936296		 0.00058249		 0.00023645		-0.00018833
O		5.07386849		3.55411492		3.09422381		-0.00058249		-0.00023645		 0.00018833
O		3.05934400		2.16685340		1.51553629		 0.00024758		 0.00077616		-0.00061483
O		5.24498528		6.54853602		3.17805146		-0.00024758		-0.00077616		 0.00061483
O		5.96267066		2.19422975		0.83112172		-0.00002914		 0.00043550		-0.00018249
O		2.34165764		6.52115870		3.86246506		 0.00002914		-0.00043550		 0.00018249
O		7.92919402		6.62555368		1.33718777		 0.00006201		 0.00046212		-0.00071246
O		0.37513526		2.08983575		3.35639901		-0.00006201		-0.00046212		 0.00071246
O		1.09282064		6.65293002		0.65277418		 0.00010651		 0.00022023		-0.00011570
O		7.21150767		2.06245940		4.04081260		-0.00010651		-0.00022023		 0.00011570
O		1.98719392		-0.04556913		5.02098192		-0.00014682		-0.00028785		 0.00026696
O		6.31713633		8.76095759		-0.32739515		 0.00014682		 0.00028785		-0.00026696
O		5.59944998		0.05359075		2.54200133		-0.00077803		 0.00024507		 0.00001962
O		2.70487930		8.66179770		2.15158642		 0.00077803		-0.00024507		-0.00001962
O		6.85704394		4.41313211		4.84263438		-0.00021126		-0.00029756		 0.00024030
O		1.44728534		4.30225829		-0.14904663		 0.00021126		 0.00029756		-0.00024030
O		0.72959996		4.51229102		2.36365281		-0.00071256		 0.00024062		 0.00004214
O		7.57472933		4.20309840		2.32993397		 0.00071256		-0.00024062		-0.00004214
