# total energy = -22463.5523131 eV

CRYSTAL
PRIMVEC
		9.73970004		0.00000000		0.00000000
		0.00000000		8.91739665		1.07009110
		-1.43536881		0.60603336		5.05028771
PRIMECORD
   40 1
Mg		-0.35884269		8.24922109		2.23429596		 0.00047400		-0.00046022		-0.00031574
Mg		-1.07652807		1.27421282		3.88607506		-0.00047400		 0.00046022		 0.00031574
Mg		4.51100733		3.79052081		1.69925235		 0.00047585		-0.00046778		-0.00031715
Mg		3.79332195		5.73291309		4.42111867		-0.00047585		 0.00046778		 0.00031715
Ca		-0.35884269		2.83992609		1.58518098		 0.00034326		-0.00019137		-0.00081634
Ca		-1.07652807		6.68350781		4.53519003		-0.00034326		 0.00019137		 0.00081634
Ca		4.51100733		7.29862636		2.12022459		 0.00035367		-0.00017837		-0.00081105
Ca		3.79332195		2.22480754		4.00014643		-0.00035367		 0.00017837		 0.00081105
Si		2.45818828		0.97001179		1.25805368		 0.00018394		 0.00039219		 0.00029729
Si		5.84614100		8.55342211		4.86231734		-0.00018394		-0.00039219		-0.00029729
Si		6.56382638		0.99503016		1.46653001		-0.00012330		-0.00045707		-0.00048602
Si		1.74050290		8.52840472		4.65384101		 0.00012330		 0.00045707		 0.00048602
Si		7.32803928		5.42871304		1.79309826		 0.00037920		 0.00044531		 0.00038235
Si		0.97629098		4.09472184		4.32727276		-0.00037920		-0.00044531		-0.00038235
Si		1.69397636		5.45373043		2.00157362		-0.00033615		-0.00034483		-0.00057373
Si		6.61035293		4.06970444		4.11879740		 0.00033615		 0.00034483		 0.00057373
O		0.92170288		0.86089403		0.80942362		 0.00046055		 0.00017145		 0.00017180
O		7.38262640		8.66253987		5.31094740		-0.00046055		-0.00017145		-0.00017180
O		8.10031081		0.99196702		1.90169884		-0.00087123		 0.00010733		 0.00000039
O		0.20401847		8.53146688		4.21867218		 0.00087123		-0.00010733		-0.00000039
O		5.79155387		5.31959431		1.34446819		 0.00031849		 0.00015471		 0.00012994
O		2.51277638		4.20383959		4.77590282		-0.00031849		-0.00015471		-0.00012994
O		3.23046079		5.45066729		2.43674341		-0.00075434		 0.00009336		 0.00005199
O		5.07386849		4.07276661		3.68362760		 0.00075434		-0.00009336		-0.00005199
O		3.05934400		2.42361819		1.87250311		-0.00008377		 0.00075367		-0.00080072
O		5.24498528		7.09981571		4.24786791		 0.00008377		-0.00075367		 0.00080072
O		5.96267066		2.34148817		1.18808854		-0.00068934		-0.00004518		 0.00021063
O		2.34165764		7.18194573		4.93228247		 0.00068934		 0.00004518		-0.00021063
O		7.92919402		6.88231847		2.40754671		-0.00012998		 0.00069211		-0.00082192
O		0.37513526		2.64111641		3.71282430		 0.00012998		-0.00069211		 0.00082192
O		1.09282064		6.80018845		1.72313312		-0.00061480		-0.00015471		 0.00024497
O		7.21150767		2.72324643		4.39723790		 0.00061480		 0.00015471		-0.00024497
O		1.98719392		0.75878399		5.04586588		 0.00031648		 0.00008417		 0.00035225
O		6.31713633		8.76464991		1.07450611		-0.00031648		-0.00008417		-0.00035225
O		5.59944998		0.46130628		2.56688431		 0.00017574		-0.00079582		-0.00070755
O		2.70487930		9.06212762		3.55348671		-0.00017574		 0.00079582		 0.00070755
O		6.85704394		5.21748427		5.58091046		 0.00028548		 0.00008419		 0.00034419
O		1.44728534		4.30594963		0.53946153		-0.00028548		-0.00008419		-0.00034419
O		0.72959996		4.92000558		3.10192792		 0.00020900		-0.00080925		-0.00068382
O		7.57472933		4.60342832		3.01844310		-0.00020900		 0.00080925		 0.00068382
