# total energy = -22463.5521803 eV

CRYSTAL
PRIMVEC
		9.73970004		0.00000000		0.00000000
		0.00000000		8.91739665		-1.07009110
		-1.43536881		-0.60603336		5.05028771
PRIMECORD
   40 1
Mg		-0.35884269		7.94620441		0.29084497		-0.00057711		-0.00041642		 0.00027408
Mg		-1.07652807		0.36516181		3.68934968		 0.00057711		 0.00041642		-0.00027408
Mg		4.51100733		3.48750413		0.82588858		-0.00057634		-0.00040459		 0.00026557
Mg		3.79332195		4.82386208		3.15430607		 0.00057634		 0.00040459		-0.00026557
Ca		-0.35884269		2.53690941		0.93996092		-0.00029028		-0.00011215		 0.00072951
Ca		-1.07652807		5.77445681		3.04023373		 0.00029028		 0.00011215		-0.00072951
Ca		4.51100733		6.99560968		0.40491732		-0.00027562		-0.00013184		 0.00073780
Ca		3.79332195		1.31575653		3.57527831		 0.00027562		 0.00013184		-0.00073780
Si		2.45818828		0.69201348		1.05861092		 0.00043270		-0.00026573		 0.00060180
Si		5.84614100		7.61935371		2.92158373		-0.00043270		 0.00026573		-0.00060180
Si		6.56382638		0.66699511		1.26708725		-0.00028642		 0.00030302		-0.00054034
Si		1.74050290		7.64437110		2.71310838		 0.00028642		-0.00030302		 0.00054034
Si		7.32803928		5.15071278		0.52356732		 0.00018758		-0.00044412		 0.00048276
Si		0.97629098		3.16065344		3.45662831		-0.00018758		 0.00044412		-0.00048276
Si		1.69397636		5.12569636		0.73204267		-0.00026592		 0.00026943		-0.00054726
Si		6.61035293		3.18567083		3.24815198		 0.00026592		-0.00026943		 0.00054726
O		0.92170288		0.68895034		0.62344210		 0.00073853		 0.00008412		-0.00013907
O		7.38262640		7.62241587		3.35675158		-0.00073853		-0.00008412		 0.00013907
O		8.10031081		0.55787736		1.71571829		-0.00043949		-0.00009347		-0.00022741
O		0.20401847		7.75348886		2.26447734		 0.00043949		 0.00009347		 0.00022741
O		5.79155387		5.14764964		0.08839752		 0.00086096		 0.00009687		-0.00008672
O		2.51277638		3.16371560		3.89179616		-0.00086096		-0.00009687		 0.00008672
O		3.23046079		5.01657666		1.18067371		-0.00044690		-0.00008344		-0.00022647
O		5.07386849		3.29478859		2.79952094		 0.00044690		 0.00008344		 0.00022647
O		3.05934400		2.03847149		1.33705336		 0.00057522		-0.00034221		-0.00038782
O		5.24498528		6.27289472		2.64314227		-0.00057522		 0.00034221		 0.00038782
O		5.96267066		2.12060054		0.65263782		 0.00005337		 0.00079513		 0.00077200
O		2.34165764		6.19076470		3.32755683		-0.00005337		-0.00079513		-0.00077200
O		7.92919402		6.49717079		0.80200878		 0.00066640		-0.00017263		-0.00033160
O		0.37513526		1.81419542		3.17818587		-0.00066640		 0.00017263		 0.00033160
O		1.09282064		6.57930081		0.11759422		 0.00003847		 0.00081056		 0.00076442
O		7.21150767		1.73206638		3.86260141		-0.00003847		-0.00081056		-0.00076442
O		1.98719392		-0.44774472		5.00854140		-0.00028066		-0.00082453		 0.00054373
O		6.31713633		8.75911094		-1.02834578		 0.00028066		 0.00082453		-0.00054373
O		5.59944998		-0.15026701		2.52955886		-0.00027973		-0.00001026		-0.00038252
O		2.70487930		8.46163323		1.45063579		 0.00027973		 0.00001026		 0.00038252
O		6.85704394		4.01095457		4.47349682		-0.00026243		-0.00083551		 0.00052484
O		1.44728534		4.30041067		-0.49330217		 0.00026243		 0.00083551		-0.00052484
O		0.72959996		4.30843326		1.99451525		-0.00029608		-0.00000945		-0.00039158
O		7.57472933		4.00293296		1.98568037		 0.00029608		 0.00000945		 0.00039158
