# total energy = -24712.0130662 eV	

CRYSTAL	
PRIMVEC	
		9.20099977		0.00000000		0.00000000	
		0.00000000		8.62099635		0.68967934	
		-0.97849872		0.38475821		4.80947299	
PRIMCOORD
   40 1	
Si		2.54259968		0.87008242		1.07886599		-0.00011421		-0.00024105		-0.00034973	
Si		5.67990229		8.13567581		4.42028450		 0.00011421		 0.00024105		 0.00034973	
Si		6.16915073		0.89993967		1.45208062		-0.00031824		-0.00004618		 0.00004599	
Si		2.05335124		8.10581857		4.04706987		 0.00031824		 0.00004618		-0.00004599	
Si		7.14309956		5.18058152		1.42370566		-0.00033182		-0.00032487		-0.00043530	
Si		1.07940241		3.82517580		4.07544483		 0.00033182		 0.00032487		 0.00043530	
Si		1.56865085		5.21043968		1.79692121		 0.00002438		-0.00026318		 0.00021474	
Si		6.65385112		3.79531764		3.70223020		-0.00002438		 0.00026318		-0.00021474	
Mg		-0.24462422		7.90423019		1.82701124		 0.00008283		 0.00020165		-0.00009239	
Mg		-0.73387266		1.10152805		3.67214017		-0.00008283		-0.00020165		 0.00009239	
Mg		4.35587567		3.59372925		1.48217065		 0.00008303		 0.00021890		-0.00008988	
Mg		3.86662722		5.41202807		4.01697984		-0.00008303		-0.00021890		 0.00008988	
Mg		-0.24462422		2.46006763		1.39147824		-0.00014218		 0.00021355		-0.00038066	
Mg		-0.73387266		6.54569061		4.10767318		 0.00014218		-0.00021355		 0.00038066	
Mg		4.35587567		6.77056764		1.73631791		-0.00014627		 0.00019388		-0.00038278	
Mg		3.86662722		2.23518967		3.76283259		 0.00014627		-0.00019388		 0.00038278	
O		0.98190953		0.84144063		0.73155309		-0.00010026		-0.00004314		 0.00011532	
O		7.24059152		8.16431669		4.76759648		 0.00010026		 0.00004314		-0.00011532	
O		7.72984088		0.92685719		1.79925551		-0.00035922		 0.00020470		 0.00053034	
O		0.49266109		8.07890105		3.69989499		 0.00035922		-0.00020470		-0.00053034	
O		5.58241126		5.15194065		1.07639276		 0.00005596		-0.00003215		 0.00014568	
O		2.64009163		3.85381667		4.42275681		-0.00005596		 0.00003215		-0.00014568	
O		3.12934099		5.23735721		2.14409610		-0.00057109		 0.00021982		 0.00047861	
O		5.09316190		3.76840103		3.35505532		 0.00057109		-0.00021982		-0.00047861	
O		3.13727133		2.18955640		1.92894360		-0.00019956		 0.00021780		-0.00028075	
O		5.08523064		6.81620184		3.57020690		 0.00019956		-0.00021780		 0.00028075	
O		5.57448000		2.09952185		0.80352699		-0.00042064		-0.00005468		-0.00014887	
O		2.64802197		6.90623547		4.69562258		 0.00042064		 0.00005468		 0.00014887	
O		7.73777122		6.50005549		2.27378419		-0.00013097		 0.00031742		-0.00022787	
O		0.48473075		2.50570183		3.22536723		 0.00013097		-0.00031742		 0.00022787	
O		0.97398011		6.41002187		1.14836666		-0.00055362		 0.00016316		-0.00027095	
O		7.24852278		2.59573453		4.35078291		 0.00055362		-0.00016316		 0.00027095	
O		2.38943063		0.88052096		4.44294289		 0.00019133		-0.00036833		-0.00000002	
O		5.83307042		8.12523820		1.05620761		-0.00019133		 0.00036833		 0.00000002	
O		5.34382197		0.75355084		2.85581735		 0.00037056		-0.00018253		-0.00003282	
O		2.87867999		8.25220740		2.64333314		-0.00037056		 0.00018253		 0.00003282	
O		6.98993144		5.19102097		4.78778256		 0.00022864		-0.00035859		 0.00000719	
O		1.23257053		3.81473727		0.71136794		-0.00022864		 0.00035859		-0.00000719	
O		0.74332209		5.06404993		3.20065702		 0.00033021		-0.00016255		-0.00003813	
O		7.47918080		3.94170646		2.29849255		-0.00033021		 0.00016255		 0.00003813	
