# total energy = -21542.2583962 eV

CRYSTAL
PRIMVEC
		5.31441973		0.00000000		0.00000000
		0.00000000		8.92300106		0.00000000
		-0.14795876		-0.11067279		9.18819592
PRIMECORD
   42 1
Mg		0.00000000		0.00000000		0.00000000		0.00000000		0.00000000		0.00000000
Mg		2.65720986		4.46150000		0.00000000		0.00000000		0.00000000		0.00000000
Mg		2.65720986		1.48648306		0.00000000		-0.00002265		 0.00012113		 0.00022525
Mg		2.65720986		7.43651748		0.00000000		 0.00002265		-0.00012113		-0.00022525
Mg		0.00000000		5.94798252		0.00000000		-0.00002280		 0.00014872		 0.00022566
Mg		0.00000000		2.97501695		0.00000000		 0.00002280		-0.00014872		-0.00022566
Si		4.38741699		1.45641885		2.67376587		-0.00007685		 0.00001006		-0.00022631
Si		0.77904398		7.35591049		6.51443271		 0.00007685		-0.00001006		 0.00022631
Si		1.73020713		5.91791885		2.67376587		-0.00007198		 0.00005564		-0.00025566
Si		3.43625384		2.89440995		6.51443271		 0.00007198		-0.00005564		 0.00025566
Si		1.73020606		2.94067091		2.67376587		-0.00007036		 0.00020462		-0.00010992
Si		3.43625384		5.87165895		6.51443271		 0.00007036		-0.00020462		 0.00010992
Si		4.38741699		7.40217038		2.67376587		-0.00007490		 0.00024761		-0.00007977
Si		0.77904398		1.41015895		6.51443271		 0.00007490		-0.00024761		 0.00007977
O		1.75554415		2.95861186		1.08053207		-0.00020128		-0.00028918		-0.00007092
O		3.41091681		5.85371747		8.10766651		 0.00020128		 0.00028918		 0.00007092
O		4.41275402		7.42011186		1.08053207		-0.00020476		-0.00028181		-0.00011150
O		0.75370695		1.39221800		8.10766651		 0.00020476		 0.00028181		 0.00011150
O		4.41275402		1.47694792		1.08053207		-0.00018346		 0.00003795		-0.00002686
O		0.75370695		7.33538141		8.10766651		 0.00018346		-0.00003795		 0.00002686
O		1.75554415		5.93844792		1.08053207		-0.00017983		 0.00004440		 0.00001229
O		3.41091681		2.87388194		8.10766651		 0.00017983		-0.00004440		-0.00001229
O		1.75288216		-0.01246178		1.03459104		 0.00034057		-0.00027728		-0.00056268
O		3.41357880		-0.09820888		8.15360754		-0.00034057		 0.00027728		 0.00056268
O		4.41009202		4.44903875		1.03459104		 0.00035470		-0.00027688		 0.00055792
O		0.75636894		4.36329059		8.15360754		-0.00035470		 0.00027688		-0.00055792
O		1.81704475		4.42297577		3.19841177		 0.00017696		 0.00004053		 0.00025501
O		3.34941463		4.38935356		5.98978681		-0.00017696		-0.00004053		-0.00025501
O		4.47425567		-0.03852476		3.19841177		 0.00017502		 0.00004259		 0.00023948
O		0.69220476		-0.07214590		5.98978681		-0.00017502		-0.00004259		-0.00023948
O		3.00342358		2.11174101		3.20576267		-0.00006320		 0.00036841		-0.00030565
O		2.16303579		6.70058886		5.98243644		 0.00006320		-0.00036841		 0.00030565
O		0.34621372		6.57324048		3.20576267		-0.00005006		 0.00034737		-0.00030545
O		4.82024672		2.23908886		5.98243644		 0.00005006		-0.00034737		 0.00030545
O		0.34616111		2.27253303		3.20576267		 0.00005154		 0.00020147		-0.00038393
O		4.82029880		6.53979684		5.98243644		-0.00005154		-0.00020147		 0.00038393
O		3.00337203		6.73403250		3.20576267		 0.00003779		 0.00017984		-0.00038446
O		2.16308893		2.07829577		5.98243644		-0.00003779		-0.00017984		 0.00038446
H		1.73977202		-0.00881397		1.86520402		-0.00034480		 0.00003204		 0.00091482
H		3.42668895		8.82114330		7.32299456		 0.00034480		-0.00003204		-0.00091482
H		4.39698188		4.45268604		1.86520402		-0.00037063		 0.00003313		-0.00010282
H		0.76947802		4.35964277		7.32299456		 0.00037063		-0.00003313		 0.00010282
