# total energy = -21538.5603069 eV

CRYSTAL
PRIMVEC
		4.79593984		0.00000000		0.00000000
		0.00000000		8.92299955		0.00000000
		-0.13352376		-0.11067111		9.18820063
PRIMECORD
   42 1
Mg		0.00000000		0.00000000		0.00000000		0.00000000		0.00000000		0.00000000
Mg		2.39796992		4.46149977		0.00000000		0.00000000		0.00000000		0.00000000
Mg		2.39796992		1.48648285		0.00000000		-0.00004051		 0.00047914		 0.00007560
Mg		2.39796992		7.43651766		0.00000000		 0.00004051		-0.00047914		-0.00007560
Mg		0.00000000		5.94798262		0.00000000		-0.00004003		 0.00057598		 0.00007565
Mg		0.00000000		2.97501692		0.00000000		 0.00004003		-0.00057598		-0.00007565
Si		3.95937590		1.45641902		2.67376572		-0.00028064		-0.00037255		 0.00009880
Si		0.70304018		7.35591086		6.51443300		 0.00028064		 0.00037255		-0.00009880
Si		1.56140598		5.91791880		2.67376572		-0.00040948		 0.00022503		 0.00023629
Si		3.10101010		2.89441012		6.51443300		 0.00040948		-0.00022503		-0.00023629
Si		1.56140598		2.94067080		2.67376572		-0.00041518		 0.00013836		 0.00024128
Si		3.10101010		5.87165860		6.51443300		 0.00041518		-0.00013836		-0.00024128
Si		3.95937590		7.40217057		2.67376572		-0.00031002		 0.00071164		 0.00011543
Si		0.70304018		1.41015882		6.51443300		 0.00031002		-0.00071164		-0.00011543
O		1.58427110		2.95861193		1.08053196		-0.00020564		-0.00032008		 0.00014326
O		3.07814498		5.85371795		8.10766675		 0.00020564		 0.00032008		-0.00014326
O		3.98224103		7.42011171		1.08053196		-0.00021253		-0.00038548		 0.00011976
O		0.68017506		1.39221817		8.10766675		 0.00021253		 0.00038548		-0.00011976
O		3.98224103		1.47694804		1.08053196		-0.00015962		 0.00045751		 0.00013936
O		0.68017506		7.33538184		8.10766675		 0.00015962		-0.00045751		-0.00013936
O		1.58427110		5.93844782		1.08053196		-0.00015337		 0.00038889		 0.00014957
O		3.07814498		2.87388206		8.10766675		 0.00015337		-0.00038889		-0.00014957
O		1.58186882		-0.01246177		1.03459117		 0.00010594		-0.00015786		-0.00052683
O		3.08054582		-0.09820886		8.15360754		-0.00010594		 0.00015786		 0.00052683
O		3.97983970		4.44903896		1.03459117		 0.00005851		-0.00016031		-0.00006825
O		0.68257686		4.36329092		8.15360754		-0.00005851		 0.00016031		 0.00006825
O		1.63977308		4.42297591		3.19841180		 0.00040992		 0.00016134		 0.00041014
O		3.02264300		4.38935397		5.98978691		-0.00040992		-0.00016134		-0.00041014
O		4.03774300		-0.03852483		3.19841180		 0.00033590		 0.00018281		 0.00028296
O		0.62467308		-0.07214580		5.98978691		-0.00033590		-0.00018281		-0.00028296
O		2.71040670		2.11174104		3.20576302		-0.00033651		 0.00085933		 0.00028145
O		1.95200794		6.70058884		5.98243666		 0.00033651		-0.00085933		-0.00028145
O		0.31243678		6.57324081		3.20576302		 0.00011998		 0.00049607		 0.00029586
O		4.34997883		2.23908907		5.98243666		-0.00011998		-0.00049607		-0.00029586
O		0.31238978		2.27253307		3.20576302		-0.00000252		 0.00008468		 0.00009459
O		4.35002583		6.53979680		5.98243666		 0.00000252		-0.00008468		-0.00009459
O		2.71035970		6.73403285		3.20576302		-0.00044124		-0.00027198		 0.00007672
O		1.95205590		2.07829607		5.98243666		 0.00044124		 0.00027198		-0.00007672
H		1.57003915		-0.00881398		1.86520383		 0.00061314		 0.00016226		 0.00004037
H		3.09237789		8.82114386		7.32299488		-0.00061314		-0.00016226		-0.00004037
H		3.96800907		4.45268580		1.86520383		 0.00065566		 0.00016366		-0.00035805
H		0.69440701		4.35964264		7.32299488		-0.00065566		-0.00016366		 0.00035805
