# total energy = -21541.0980506 eV

CRYSTAL
PRIMVEC
		5.05518005		0.00000000		0.00000000
		0.00000000		8.92299941		0.00000000
		-0.14074127		-0.11067306		9.18819921
PRIMECORD
   42 1
Mg		0.00000000		0.00000000		0.00000000		0.00000000		0.00000000		0.00000000
Mg		2.52759002		4.46150021		0.00000000		0.00000000		0.00000000		0.00000000
Mg		2.52759002		1.48648277		0.00000000		 0.00008628		 0.00014443		 0.00015494
Mg		2.52759002		7.43651815		0.00000000		-0.00008628		-0.00014443		-0.00015494
Mg		0.00000000		5.94798298		0.00000000		 0.00008708		 0.00018216		 0.00015693
Mg		0.00000000		2.97501693		0.00000000		-0.00008708		-0.00018216		-0.00015693
Si		4.17339589		1.45641911		2.67376612		-0.00001359		 0.00020442		 0.00034972
Si		0.74104188		7.35591129		6.51443309		 0.00001359		-0.00020442		-0.00034972
Si		1.64580587		5.91791881		2.67376612		-0.00006931		 0.00050122		 0.00043350
Si		3.26863190		2.89441007		6.51443309		 0.00006931		-0.00050122		-0.00043350
Si		1.64580587		2.94067103		2.67376612		-0.00002226		-0.00007729		 0.00057801
Si		3.26863190		5.87165886		6.51443309		 0.00002226		 0.00007729		-0.00057801
Si		4.17339589		7.40217124		2.67376612		 0.00002288		 0.00018249		 0.00049784
Si		0.74104188		1.41015916		6.51443309		-0.00002288		-0.00018249		-0.00049784
O		1.66990695		2.95861186		1.08053210		-0.00000013		 0.00004201		 0.00014970
O		3.24453082		5.85371803		8.10766711		 0.00000013		-0.00004201		-0.00014970
O		4.19749697		7.42011207		1.08053210		-0.00000172		 0.00001110		 0.00015223
O		0.71694080		1.39221782		8.10766711		 0.00000172		-0.00001110		-0.00015223
O		4.19749697		1.47694820		1.08053210		-0.00004301		-0.00025227		 0.00014751
O		0.71694080		7.33538220		8.10766711		 0.00004301		 0.00025227		-0.00014751
O		1.66990695		5.93844790		1.08053210		-0.00004109		-0.00028404		 0.00013487
O		3.24453082		2.87388199		8.10766711		 0.00004109		 0.00028404		-0.00013487
O		1.66737582		-0.01246203		1.03459113		 0.00034532		-0.00004957		-0.00015957
O		3.24706195		-0.09820900		8.15360808		-0.00034532		 0.00004957		 0.00015957
O		4.19496584		4.44903919		1.03459113		 0.00034379		-0.00004954		-0.00027142
O		0.71947294		4.36329120		8.15360808		-0.00034379		 0.00004954		 0.00027142
O		1.72840903		4.42297620		3.19841191		 0.00004372		 0.00010600		 0.00007705
O		3.18602925		4.38935420		5.98978730		-0.00004372		-0.00010600		-0.00007705
O		4.25599905		-0.03852502		3.19841191		 0.00001715		 0.00013649		 0.00001449
O		0.65843922		-0.07214601		5.98978730		-0.00001715		-0.00013649		-0.00001449
O		2.85691579		2.11174080		3.20576315		-0.00037896		 0.00034315		 0.00007853
O		2.05752198		6.70058909		5.98243707		 0.00037896		-0.00034315		-0.00007853
O		0.32932577		6.57324101		3.20576315		-0.00013381		 0.00017294		 0.00008019
O		4.58511301		2.23908888		5.98243707		 0.00013381		-0.00017294		-0.00008019
O		0.32927522		2.27253294		3.20576315		 0.00001203		 0.00007142		-0.00001433
O		4.58516306		6.53979695		5.98243707		-0.00001203		-0.00007142		 0.00001433
O		2.85686625		6.73403315		3.20576315		-0.00023037		-0.00009944		-0.00002055
O		2.05757303		2.07829624		5.98243707		 0.00023037		 0.00009944		 0.00002055
H		1.65490620		-0.00881421		1.86520422		-0.00056484		 0.00001224		-0.00021614
H		3.25953308		8.82114410		7.32299499		 0.00056484		-0.00001224		 0.00021614
H		4.18249522		4.45268600		1.86520422		-0.00056155		 0.00001295		-0.00011433
H		0.73194306		4.35964288		7.32299499		 0.00056155		-0.00001295		 0.00011433
