# total energy = -21540.0104423 eV

CRYSTAL
PRIMVEC
		4.92555968		0.00000000		0.00000000
		0.00000000		8.92300108		0.00000000
		-0.13713251		-0.11067240		9.18819814
PRIMECORD
   42 1
Mg		0.00000000		0.00000000		0.00000000		0.00000000		0.00000000		0.00000000
Mg		2.46277984		4.46149955		0.00000000		0.00000000		0.00000000		0.00000000
Mg		2.46277984		1.48648269		0.00000000		 0.00004677		-0.00034393		 0.00017493
Mg		2.46277984		7.43651741		0.00000000		-0.00004677		 0.00034393		-0.00017493
Mg		0.00000000		5.94798273		0.00000000		 0.00004661		-0.00035598		 0.00017456
Mg		0.00000000		2.97501687		0.00000000		-0.00004661		 0.00035598		-0.00017456
Si		4.06638593		1.45641904		2.67376570		 0.00018015		 0.00027366		-0.00081884
Si		0.72204075		7.35591062		6.51443244		-0.00018015		-0.00027366		 0.00081884
Si		1.60360609		5.91791859		2.67376570		 0.00018435		 0.00022656		-0.00082048
Si		3.18482059		2.89440959		6.51443244		-0.00018435		-0.00022656		 0.00082048
Si		1.60360609		2.94067094		2.67376570		 0.00023549		 0.00050523		-0.00059563
Si		3.18482059		5.87165872		6.51443244		-0.00023549		-0.00050523		 0.00059563
Si		4.06638593		7.40217049		2.67376570		 0.00023291		 0.00046469		-0.00059431
Si		0.72204075		1.41015868		6.51443244		-0.00023291		-0.00046469		 0.00059431
O		1.62708870		2.95861180		1.08053185		-0.00032585		 0.00075195		-0.00016759
O		3.16133798		5.85371786		8.10766629		 0.00032585		-0.00075195		 0.00016759
O		4.08986854		7.42011135		1.08053185		-0.00032496		 0.00075480		-0.00015735
O		0.69855814		1.39221782		8.10766629		 0.00032496		-0.00075480		 0.00015735
O		4.08986854		1.47694779		1.08053185		-0.00031027		-0.00076883		-0.00004600
O		0.69855814		7.33538138		8.10766629		 0.00031027		 0.00076883		 0.00004600
O		1.62708870		5.93844783		1.08053185		-0.00031136		-0.00076526		-0.00005445
O		3.16133798		2.87388183		8.10766629		 0.00031136		 0.00076526		 0.00005445
O		1.62462296		-0.01246216		1.03459115		-0.00028745		 0.00002727		-0.00068053
O		3.16380372		-0.09820876		8.15360748		 0.00028745		-0.00002727		 0.00068053
O		4.08740280		4.44903887		1.03459115		-0.00027877		 0.00002833		-0.00089880
O		0.70102486		4.36329079		8.15360748		 0.00027877		-0.00002833		 0.00089880
O		1.68409072		4.42297577		3.19841169		-0.00014523		 0.00040744		-0.00005269
O		3.10433596		4.38935390		5.98978645		 0.00014523		-0.00040744		 0.00005269
O		4.14687056		-0.03852477		3.19841169		-0.00013766		 0.00040316		-0.00004218
O		0.64155612		-0.07214615		5.98978645		 0.00013766		-0.00040316		 0.00004218
O		2.78366183		2.11174062		3.20576259		 0.00007385		 0.00018653		 0.00059857
O		2.00476485		6.70058855		5.98243653		-0.00007385		-0.00018653		-0.00059857
O		0.32088199		6.57324067		3.20576259		 0.00004464		 0.00021231		 0.00059783
O		4.46754568		2.23908900		5.98243653		-0.00004464		-0.00021231		-0.00059783
O		0.32083175		2.27253305		3.20576259		 0.00035451		 0.00076711		 0.00045137
O		4.46759493		6.53979661		5.98243653		-0.00035451		-0.00076711		-0.00045137
O		2.78361257		6.73403261		3.20576259		 0.00038331		 0.00079328		 0.00045290
O		2.00481509		2.07829607		5.98243653		-0.00038331		-0.00079328		-0.00045290
H		1.61247210		-0.00881380		1.86520404		-0.00083412		 0.00008332		 0.00054703
H		3.17595458		8.82114346		7.32299458		 0.00083412		-0.00008332		-0.00054703
H		4.07525194		4.45268576		1.86520404		-0.00083976		 0.00008278		 0.00073910
H		0.71317474		4.35964292		7.32299458		 0.00083976		-0.00008278		-0.00073910
