# total energy = -21536.7233815 eV

CRYSTAL
PRIMVEC
		4.66632000		0.00000000		0.00000000
		0.00000000		8.92299777		0.00000000
		-0.12991502		-0.11067111		9.18819874
PRIMECORD
   42 1
Mg		0.00000000		0.00000000		0.00000000		0.00000000		0.00000000		0.00000000
Mg		2.33316000		4.46149982		0.00000000		0.00000000		0.00000000		0.00000000
Mg		2.33316000		1.48648284		0.00000000		 0.00000556		-0.00061497		-0.00002305
Mg		2.33316000		7.43651821		0.00000000		-0.00000556		 0.00061497		 0.00002305
Mg		0.00000000		5.94798312		0.00000000		 0.00000623		-0.00052320		-0.00002209
Mg		0.00000000		2.97501699		0.00000000		-0.00000623		 0.00052320		 0.00002209
Si		3.85236587		1.45641914		2.67376590		-0.00024069		-0.00038898		-0.00054731
Si		0.68403912		7.35591079		6.51443284		 0.00024069		 0.00038898		 0.00054731
Si		1.51920587		5.91791896		2.67376590		-0.00043346		 0.00026859		-0.00035107
Si		3.01719912		2.89441004		6.51443284		 0.00043346		-0.00026859		 0.00035107
Si		1.51920587		2.94067100		2.67376590		-0.00038899		 0.00022313		-0.00041582
Si		3.01719912		5.87165893		6.51443284		 0.00038899		-0.00022313		 0.00041582
Si		3.85236587		7.40217082		2.67376590		-0.00021242		 0.00084047		-0.00059736
Si		0.68403912		1.41015911		6.51443284		 0.00021242		-0.00084047		 0.00059736
O		1.54145302		2.95861207		1.08053213		 0.00001225		-0.00031845		-0.00027667
O		2.99495197		5.85371786		8.10766708		-0.00001225		 0.00031845		 0.00027667
O		3.87461302		7.42011189		1.08053213		 0.00000639		-0.00040587		-0.00025354
O		0.66179197		1.39221804		8.10766708		-0.00000639		 0.00040587		 0.00025354
O		3.87461302		1.47694814		1.08053213		-0.00003531		 0.00056839		-0.00023713
O		0.66179197		7.33538179		8.10766708		 0.00003531		-0.00056839		 0.00023713
O		1.54145302		5.93844796		1.08053213		-0.00002994		 0.00047943		-0.00027498
O		2.99495197		2.87388197		8.10766708		 0.00002994		-0.00047943		 0.00027498
O		1.53911613		-0.01246187		1.03459081		-0.00007167		-0.00000420		-0.00009298
O		2.99728793		-0.09820877		8.15360793		 0.00007167		 0.00000420		 0.00009298
O		3.87227613		4.44903888		1.03459081		-0.00002943		-0.00000505		-0.00044285
O		0.66412886		4.36329105		8.15360793		 0.00002943		 0.00000505		 0.00044285
O		1.59545494		4.42297608		3.19841192		-0.00005444		 0.00021049		 0.00047202
O		2.94095005		4.38935385		5.98978682		 0.00005444		-0.00021049		-0.00047202
O		3.92861494		-0.03852514		3.19841192		-0.00013747		 0.00024018		 0.00032933
O		0.60779005		-0.07214597		5.98978682		 0.00013747		-0.00024018		-0.00032933
O		2.63715302		2.11174078		3.20576278		-0.00052447		 0.00044046		 0.00047346
O		1.89925197		6.70058914		5.98243690		 0.00052447		-0.00044046		-0.00047346
O		0.30399302		6.57324107		3.20576278		-0.00001797		 0.00004487		 0.00048158
O		4.23241197		2.23908886		5.98243690		 0.00001797		-0.00004487		-0.00048158
O		0.30394682		2.27253284		3.20576278		-0.00017402		 0.00045078		 0.00031599
O		4.23245817		6.53979709		5.98243690		 0.00017402		-0.00045078		-0.00031599
O		2.63710682		6.73403313		3.20576278		-0.00067090		 0.00005314		 0.00030050
O		1.89929817		2.07829587		5.98243690		 0.00067090		-0.00005314		-0.00030050
H		1.52760478		-0.00881421		1.86520417		 0.00077283		 0.00016839		 0.00012261
H		3.00880021		8.82114414		7.32299504		-0.00077283		-0.00016839		-0.00012261
H		3.86076478		4.45268608		1.86520417		 0.00074467		 0.00016828		 0.00043510
H		0.67564021		4.35964292		7.32299504		-0.00074467		-0.00016828		-0.00043510
