# total energy = -8761.42720585 eV	

CRYSTAL	
PRIMVEC	
		3.18573893		0.00000914		0.00002438	
		-1.59286337		2.75893361		-0.00000914	
		0.00009754		0.00001219		16.09990689	
PRIMCOORD
   11 1	
H		0.00004023		1.83930086		5.58038353		-0.00000334		-0.00000033		 0.00042197	
H		1.59298559		0.91967146		10.51977482		 0.00000231		-0.00000018		-0.00040584	
Mg		0.00020757		0.00000000		12.50036876		-0.00000414		 0.00000133		-0.00026504	
Mg		-0.00011156		0.00000000		3.59958689		 0.00000511		-0.00000048		 0.00026767	
Mg		1.59303223		0.91968731		14.90797467		-0.00000502		-0.00000231		 0.00005858	
Mg		-0.00011735		1.83924935		1.19169234		 0.00001072		 0.00000498		-0.00002167	
O		1.59281125		0.91963641		2.38976841		-0.00000375		 0.00000010		-0.00018606	
O		0.00017038		1.83933286		13.71003790		-0.00000001		-0.00000344		 0.00020444	
O		-0.00010058		1.83929446		4.61991245		 0.00000040		-0.00000070		-0.00055889	
O		1.59308313		0.91964494		11.48025931		-0.00000100		 0.00000192		 0.00046476	
O		-0.00000945		0.00000000		-0.00015636		-0.00000129		-0.00000089		 0.00002008	
