# total energy = -9214.89216213 eV

CRYSTAL
PRIMVEC
		5.32600074		0.00000000		-0.63911880
		-2.66299769		4.61245353		0.31956208
		-0.87455934		0.00000000		7.28799810
PRIMECORD
   18 1
Mg		1.36924196		0.00000000		3.10397974		 0.00014743		-0.00000000		 0.00028221
Mg		-1.28150816		1.53041072		3.42206988		 0.00058050		 0.00034329		 0.00080241
Mg		1.38149221		3.08204012		3.10250994		 0.00058050		-0.00034329		 0.00080241
Si		-0.06471705		3.07496794		0.53931177		-0.00000152		-0.00000758		-0.00003497
Si		2.59828279		1.53748397		0.21975184		-0.00000152		 0.00000758		-0.00003497
H		2.46487971		0.00000000		4.96220914		-0.00063997		-0.00000000		 0.00004858
H		-2.19270720		2.68905917		5.52112012		 0.00025383		 0.00014020		-0.00040530
H		0.47029317		1.92339221		5.20155965		 0.00025383		-0.00014020		-0.00040530
H		-0.17228823		0.00000000		1.43573617		-0.00069644		-0.00000000		-0.00043536
O		-0.25458380		3.07496794		2.12153701		-0.00006280		 0.00028041		-0.00009902
O		2.40841604		1.53748397		1.80197707		-0.00006280		-0.00028041		-0.00009902
O		1.83271883		0.00000000		6.90566189		-0.00041879		-0.00000000		-0.00009001
O		-2.21770496		2.33851287		7.39171296		 0.00004243		-0.00009290		-0.00002750
O		0.44529487		2.27393797		7.07215302		 0.00004243		 0.00009290		-0.00002750
O		3.02222274		0.00000000		3.86096793		-0.00075106		-0.00000000		-0.00025603
O		-2.28247297		3.06266781		4.49753176		-0.00003271		 0.00010785		-0.00010827
O		0.38052687		1.54978411		4.17797183		-0.00003271		-0.00010785		-0.00010827
O		-0.26586580		0.00000000		2.21555177		 0.00079938		0.00000000		 0.00019590
