# total energy = -9215.22457396 eV

CRYSTAL
PRIMVEC
		5.32600018		0.00000000		0.21303979
		-2.66299743		4.61244906		-0.10651990
		0.29152253		0.00000000		7.28799925
PRIMECORD
   18 1
Mg		1.89980880		0.00000000		3.38672721		 0.00070816		-0.00000000		 0.00006241
Mg		-0.75094182		1.53041119		3.28069716		 0.00016559		 0.00054097		 0.00021192
Mg		1.91205774		3.08204001		3.38721706		 0.00016559		-0.00054097		 0.00021192
Si		0.02157209		3.07496782		0.53931188		 0.00027788		-0.00000400		-0.00015236
Si		2.68457271		1.53748391		0.64583178		 0.00027788		 0.00000400		-0.00015236
H		3.31845085		0.00000000		5.45901786		 0.00014807		-0.00000000		-0.00000286
H		-1.33913591		2.68905919		5.27271518		-0.00003958		 0.00001438		-0.00026544
H		1.32386418		1.92339200		5.37923508		-0.00003958		-0.00001438		-0.00026544
H		0.05742874		0.00000000		1.43573619		-0.00005512		0.00000000		 0.00056554
O		0.08486092		3.07496782		2.12153692		-0.00033191		 0.00002330		-0.00010217
O		2.74786208		1.53748391		2.22805681		-0.00033191		-0.00002330		-0.00010217
O		2.98946993		0.00000000		7.33770711		-0.00011934		-0.00000000		 0.00002914
O		-1.06095289		2.33851311		7.17569016		 0.00022228		 0.00012105		-0.00000881
O		1.60204720		2.27393809		7.28221005		 0.00022228		-0.00012105		-0.00000881
O		3.70787798		0.00000000		4.42680307		-0.00061859		0.00000000		-0.00008366
O		-1.59681822		3.06266771		4.21461505		 0.00002510		-0.00035121		 0.00018123
O		1.06618187		1.54978401		4.32113495		 0.00002510		 0.00035121		 0.00018123
O		0.08862195		0.00000000		2.21555203		-0.00070188		0.00000000		-0.00029935
