# total energy = -9215.13032535 eV

CRYSTAL
PRIMVEC
		5.32600180		0.00000000		0.85216266
		-2.66299820		4.61245291		-0.42607863
		1.16607843		0.00000000		7.28800235
PRIMECORD
   18 1
Mg		2.29773293		0.00000000		3.59878705		-0.00058461		0.00000000		-0.00054074
Mg		-0.35301716		1.53041113		3.17466689		 0.00036209		-0.00040606		-0.00028087
Mg		2.30998266		3.08204016		3.60074714		 0.00036209		 0.00040606		-0.00028087
Si		0.08629016		3.07496789		0.53931215		-0.00023665		-0.00020182		 0.00015314
Si		2.74928998		1.53748394		0.96539186		-0.00023665		 0.00020182		 0.00015314
H		3.95862892		0.00000000		5.83162464		 0.00022606		0.00000000		 0.00032302
H		-0.69895882		2.68905914		5.08641071		-0.00033134		 0.00033653		-0.00062042
H		1.96404208		1.92339214		5.51249096		-0.00033134		-0.00033653		-0.00062042
H		0.22971785		0.00000000		1.43573586		 0.00052240		0.00000000		-0.00043816
O		0.33944597		3.07496789		2.12153718		-0.00013207		 0.00028288		 0.00018910
O		3.00244579		1.53748394		2.54761690		-0.00013207		-0.00028288		 0.00018910
O		3.85703402		0.00000000		7.66174065		-0.00034902		0.00000000		-0.00038540
O		-0.19338992		2.33851285		7.01367286		 0.00007138		-0.00053147		 0.00023842
O		2.46960990		2.27393790		7.43975257		 0.00007138		 0.00053147		 0.00023842
O		4.22211860		0.00000000		4.85117776		 0.00054160		-0.00000000		 0.00024115
O		-1.08257684		3.06266800		4.00242664		 0.00012996		-0.00030592		 0.00080377
O		1.58042298		1.54978383		4.42850689		 0.00012996		 0.00030592		 0.00080377
O		0.35448804		0.00000000		2.21555172		-0.00008318		0.00000000		-0.00016617
