# total energy = -10313.0733871 eV

CRYSTAL
PRIMVEC
		4.98000197		0.79680253		0.00000000
		1.41599876		8.84999983		0.00000000
		0.00000000		0.00000000		2.74999784
PRIMECORD
   14 1
Si		0.00000000		0.00000000		0.00000000		0.00000000		0.00000000		0.00000000
Si		3.19799986		4.82340017		0.00000000		0.00000000		0.00000000		0.00000000
Mg		0.87924805		3.01142297		1.37499993		-0.00046626		 0.00030329		0.00000000
Mg		5.51675218		6.63537738		1.37499993		 0.00046626		-0.00030329		-0.00000000
Mg		3.26152428		7.70430701		1.37499993		-0.00025593		 0.00011442		0.00000000
Mg		3.13447595		1.94249283		1.37499993		 0.00025593		-0.00011442		0.00000000
O		1.14110892		0.56890806		1.37499993		-0.00072942		 0.00027993		-0.00000000
O		5.25489131		9.07789329		1.37499993		 0.00072942		-0.00027993		0.00000000
O		2.18376527		5.04745313		1.37499993		 0.00023811		-0.00005509		0.00000000
O		4.21223496		4.59934822		1.37499993		-0.00023811		 0.00005509		0.00000000
O		2.39176931		3.04473928		0.00000000		 0.00073575		-0.00016928		0.00000000
O		4.00423092		6.60206208		0.00000000		-0.00073575		 0.00016928		-0.00000000
O		1.68046906		7.24265115		0.00000000		 0.00024362		-0.00047877		0.00000000
O		4.71553117		2.40414920		0.00000000		-0.00024362		 0.00047877		0.00000000
