# total energy = -24713.944617 eV

CRYSTAL
PRIMVEC
		9.27319965		0.00000000		0.00000000
		0.00000000		8.72660017		0.69812356
		0.00000000		0.42573260		5.32170382
PRIMECORD
   40 1
Mg		0.00000000		8.00226035		1.96209128		-0.00074471		-0.00024969		 0.00020898
Mg		0.00000000		1.15007428		4.05773703		 0.00074471		 0.00024969		-0.00020898
Mg		4.63659983		5.51337343		4.40680066		-0.00074471		 0.00024969		-0.00020898
Mg		4.63659983		3.63896211		1.61302671		 0.00074471		-0.00024969		 0.00020898
Mg		0.00000000		2.41636493		1.51521857		 0.00029597		-0.00056171		 0.00022224
Mg		0.00000000		6.73597062		4.50460881		-0.00029597		 0.00056171		-0.00022224
Mg		4.63659983		2.37267054		4.15554517		 0.00029597		 0.00056171		-0.00022224
Mg		4.63659983		6.77966501		1.86428313		-0.00029597		-0.00056171		 0.00022224
Si		2.70591966		0.82771096		0.41837431		 0.00005764		-0.00042615		-0.00000687
Si		6.56727999		8.32462458		5.60145399		-0.00005764		 0.00042615		 0.00000687
Si		1.93068017		3.80516474		3.30039110		 0.00014034		-0.00021593		 0.00021422
Si		7.34251948		5.34716988		2.71943720		-0.00014034		 0.00021593		-0.00021422
Si		6.56727999		0.98387072		2.37037264		 0.00014034		 0.00021593		-0.00021422
Si		2.70591966		8.16846483		3.64945474		-0.00014034		-0.00021593		 0.00021422
Si		7.34251948		3.96132450		5.25238943		 0.00005764		 0.00042615		 0.00000687
Si		1.93068017		5.19101012		0.76743795		-0.00005764		-0.00042615		-0.00000687
O		1.08774632		0.85052767		0.48682258		-0.00005450		 0.00043088		-0.00007654
O		8.18545333		8.30180788		5.53300480		 0.00005450		-0.00043088		 0.00007654
O		3.54885351		3.79307620		3.36604814		 0.00011387		 0.00042437		-0.00020058
O		5.72434614		5.35925842		2.65378017		-0.00011387		-0.00042437		 0.00020058
O		8.18545333		0.99595926		2.30471560		 0.00011387		-0.00042437		 0.00020058
O		1.08774632		8.15637536		3.71511178		-0.00011387		 0.00042437		-0.00020058
O		5.72434614		3.93850779		5.18394023		-0.00005450		-0.00043088		 0.00007654
O		3.54885351		5.21382776		0.83588714		 0.00005450		 0.00043088		-0.00007654
O		3.49321524		2.21668697		0.54747023		-0.00020247		-0.00023831		-0.00018816
O		5.77998442		6.93564765		5.47235807		 0.00020247		 0.00023831		 0.00018816
O		1.14338459		2.41908290		3.20748199		 0.00000149		-0.00015832		-0.00022067
O		8.12981506		6.73325172		2.81234632		-0.00000149		 0.00015832		 0.00022067
O		5.77998442		2.36995163		2.46328175		 0.00000149		 0.00015832		 0.00022067
O		3.49321524		6.78238391		3.55654563		-0.00000149		-0.00015832		-0.00022067
O		8.12981506		2.57234756		5.12329351		-0.00020247		 0.00023831		 0.00018816
O		1.14338459		6.57998706		0.89653387		 0.00020247		-0.00023831		-0.00018816
O		3.24747452		8.62544904		2.21922227		 0.00073680		-0.00009224		 0.00052573
O		6.02572513		0.52688744		3.80060604		-0.00073680		 0.00009224		-0.00052573
O		1.38912531		4.92356363		4.56689226		-0.00065722		-0.00053793		 0.00018258
O		7.88407434		4.22877192		1.45293605		 0.00065722		 0.00053793		-0.00018258
O		6.02572513		8.59207108		1.80199969		-0.00065722		 0.00053793		-0.00018258
O		3.24747452		0.56026354		4.21782769		 0.00065722		-0.00053793		 0.00018258
O		7.88407434		4.89018567		4.14966968		 0.00073680		 0.00009224		-0.00052573
O		1.38912531		4.26214895		1.87015770		-0.00073680		-0.00009224		 0.00052573
