# total energy = -24713.944617 eV

CRYSTAL
PRIMVEC
		9.27319965		0.00000000		0.00000000
		0.00000000		8.72660017		-0.69812356
		0.00000000		-0.42573260		5.32170382
PRIMECORD
   40 1
Mg		0.00000000		7.78939312		0.69875878		 0.00074471		-0.00024969		-0.00020898
Mg		0.00000000		0.51146982		3.92481313		-0.00074471		 0.00024969		 0.00020898
Mg		4.63659983		4.87476990		3.57574857		 0.00074471		 0.00024969		 0.00020898
Mg		4.63659983		3.42609396		1.04782334		-0.00074471		-0.00024969		-0.00020898
Mg		0.00000000		2.20349677		1.14563056		-0.00029597		-0.00056171		-0.00022223
Mg		0.00000000		6.09736709		3.47794228		 0.00029597		 0.00056171		 0.00022223
Mg		4.63659983		1.73406701		3.82700591		-0.00029597		 0.00056171		 0.00022223
Mg		4.63659983		6.56679686		0.79656692		 0.00029597		-0.00056171		-0.00022223
Si		2.70591966		0.77100257		0.29047742		-0.00014035		 0.00021594		 0.00021422
Si		6.56727999		7.52986037		4.33309449		 0.00014035		-0.00021594		-0.00021422
Si		1.93068017		3.32272097		2.73015980		-0.00005763		 0.00042615		-0.00000687
Si		7.34251948		4.97814197		1.89341211		 0.00005763		-0.00042615		 0.00000687
Si		6.56727999		0.61484281		2.24247574		-0.00005763		-0.00042615		 0.00000687
Si		2.70591966		7.68602105		2.38109617		 0.00005763		 0.00042615		-0.00000687
Si		7.34251948		3.16656121		4.68215906		-0.00014035		-0.00021594		-0.00021422
Si		1.93068017		5.13430172		-0.05858715		 0.00014035		 0.00021594		 0.00021422
O		1.08774632		0.78309111		0.35613352		-0.00011387		-0.00042437		-0.00020058
O		8.18545333		7.51777183		4.26743746		 0.00011387		 0.00042437		 0.00020058
O		3.54885351		3.29990426		2.79860993		 0.00005451		-0.00043087		-0.00007656
O		5.72434614		5.00095960		1.82496291		-0.00005451		 0.00043087		 0.00007656
O		8.18545333		0.63765952		2.17402655		 0.00005451		 0.00043087		 0.00007656
O		1.08774632		7.66320342		2.44954629		-0.00005451		-0.00043087		-0.00007656
O		5.72434614		3.15447174		4.61650202		-0.00011387		 0.00042437		 0.00020058
O		3.54885351		5.14639119		0.00706989		 0.00011387		-0.00042437		-0.00020058
O		3.49321524		2.15708348		0.19756830		-0.00000148		 0.00015832		-0.00022067
O		5.77998442		6.14377853		4.42600361		 0.00000148		-0.00015832		 0.00022067
O		1.14338459		1.93374403		2.85925572		 0.00020247		 0.00023831		-0.00018815
O		8.12981506		6.36711891		1.76431618		-0.00020247		-0.00023831		 0.00018815
O		5.77998442		2.00381882		2.11337982		 0.00020247		-0.00023831		 0.00018815
O		3.49321524		6.29704412		2.51019209		-0.00020247		 0.00023831		-0.00018815
O		8.12981506		1.78047937		4.77506817		-0.00000148		-0.00015832		 0.00022067
O		1.14338459		6.52038357		-0.15149626		 0.00000148		 0.00015832		-0.00022067
O		3.24747452		8.37920293		0.85885037		 0.00065723		 0.00053794		 0.00018259
O		6.02572513		-0.07833999		3.76472247		-0.00065723		-0.00053794		-0.00018259
O		1.38912531		4.25158214		3.83287956		-0.00073680		 0.00009224		 0.00052573
O		7.88407434		4.04928080		0.79069235		 0.00073680		-0.00009224		-0.00052573
O		6.02572513		8.41258088		0.44162779		-0.00073680		-0.00009224		-0.00052573
O		3.24747452		-0.11171702		4.18194412		 0.00073680		 0.00009224		 0.00052573
O		7.88407434		4.28496009		3.41565883		 0.00065723		-0.00053794		-0.00018259
O		1.38912531		4.01590377		1.20791400		-0.00065723		 0.00053794		 0.00018259
