# total energy = -24715.9164601 eV

CRYSTAL
PRIMVEC
		9.27319965		0.00000000		0.00000000
		0.00000000		8.72660017		-0.34906178
		0.00000000		-0.21286630		5.32170382
PRIMECORD
   40 1
Mg		0.00000000		7.84261016		1.01459190		 0.00003118		 0.00037702		 0.00054864
Mg		0.00000000		0.67112093		3.95804364		-0.00003118		-0.00037702		-0.00054864
Mg		4.63659983		5.03442102		3.78351182		 0.00003118		-0.00037702		-0.00054864
Mg		4.63659983		3.47931100		1.18912372		-0.00003118		 0.00037702		 0.00054864
Mg		0.00000000		2.25671381		1.23802779		-0.00045479		 0.00029301		 0.00038708
Mg		0.00000000		6.25701821		3.73460775		 0.00045479		-0.00029301		-0.00038708
Mg		4.63659983		1.89371812		3.90913957		-0.00045479		-0.00029301		-0.00038708
Mg		4.63659983		6.62001390		1.06349597		 0.00045479		 0.00029301		 0.00038708
Si		2.70591966		0.78518036		0.32245141		-0.00010505		 0.00014871		-0.00004567
Si		6.56727999		7.72855166		4.65018506		 0.00010505		-0.00014871		 0.00004567
Si		1.93068017		3.44333191		2.87271763		-0.00051335		 0.00007597		-0.00034362
Si		7.34251948		5.07039918		2.09991884		 0.00051335		-0.00007597		 0.00034362
Si		6.56727999		0.70710002		2.27445066		-0.00051335		-0.00007597		 0.00034362
Si		2.70591966		7.80663200		2.69818581		 0.00051335		 0.00007597		-0.00034362
Si		7.34251948		3.36525157		4.82471688		-0.00010505		-0.00014871		 0.00004567
Si		1.93068017		5.14847859		0.14791866		 0.00010505		 0.00014871		-0.00004567
O		1.08774632		0.79995071		0.38880579		-0.00018159		 0.00026452		 0.00040933
O		8.18545333		7.71378038		4.58382976		 0.00018159		-0.00026452		-0.00040933
O		3.54885351		3.42319701		2.94046855		-0.00039154		 0.00050377		 0.00001968
O		5.72434614		5.09053500		2.03216699		 0.00039154		-0.00050377		-0.00001968
O		8.18545333		0.72723492		2.20669881		-0.00039154		-0.00050377		-0.00001968
O		1.08774632		7.78649710		2.76593673		 0.00039154		 0.00050377		 0.00001968
O		5.72434614		3.35048122		4.75836157		-0.00018159		-0.00026452		-0.00040933
O		3.54885351		5.16324987		0.21427397		 0.00018159		 0.00026452		 0.00040933
O		3.49321524		2.17198459		0.28504425		-0.00022672		 0.00050750		-0.00045419
O		5.77998442		6.34174650		4.68759315		 0.00022672		-0.00050750		 0.00045419
O		1.14338459		2.05507921		2.94631159		-0.00003299		-0.00054349		 0.00038018
O		8.12981506		6.45865188		2.02632395		 0.00003299		 0.00054349		-0.00038018
O		5.77998442		2.09535272		2.20085577		-0.00003299		 0.00054349		-0.00038018
O		3.49321524		6.41837837		2.77177978		 0.00003299		-0.00054349		 0.00038018
O		8.12981506		1.97844735		4.86212497		-0.00022672		-0.00050750		 0.00045419
O		1.14338459		6.53528467		0.11051243		 0.00022672		 0.00050750		-0.00045419
O		3.24747452		8.44076492		1.19894311		-0.00018205		 0.00012707		-0.00018721
O		6.02572513		0.07296710		3.77369243		 0.00018205		-0.00012707		 0.00018721
O		1.38912531		4.41957821		4.01638320		 0.00020371		 0.00039371		-0.00089456
O		7.88407434		4.09415381		0.95625328		-0.00020371		-0.00039371		 0.00089456
O		6.02572513		8.45745390		0.78172053		 0.00020371		-0.00039371		 0.00089456
O		3.24747452		0.05627812		4.19091501		-0.00020371		 0.00039371		-0.00089456
O		7.88407434		4.43626718		3.59916061		-0.00018205		-0.00012707		 0.00018721
O		1.38912531		4.07746483		1.37347493		 0.00018205		 0.00012707		-0.00018721
