# total energy = -22459.6662204 eV

CRYSTAL
PRIMVEC
		9.95829997		0.00000000		0.00000000
		0.00000000		7.67700282		0.00000000
		-0.57710340		0.00000000		4.72194701
PRIMECORD
   40 1
Ca		7.31017391		0.51819806		0.42544745		 0.00007334		 0.00042551		 0.00022423
Ca		2.07101769		7.15880277		4.29649558		-0.00007334		-0.00042551		-0.00022423
Ca		2.35957237		4.35669748		1.93552506		-0.00007334		 0.00042551		-0.00022423
Ca		7.02162021		3.32030335		2.78641897		 0.00007334		-0.00042551		 0.00022423
Mg		2.17721897		1.25979565		1.90388754		-0.00002819		-0.00056433		 0.00029054
Mg		7.20397362		6.41720418		2.81805649		 0.00002819		 0.00056433		-0.00029054
Mg		7.49252830		5.09829607		0.45708398		 0.00002819		-0.00056433		-0.00029054
Mg		1.88866429		2.57870377		4.26485905		-0.00002819		 0.00056433		 0.00029054
Si		4.81967179		1.27438157		2.18484305		-0.00050359		 0.00018357		 0.00036003
Si		4.56151980		6.40261826		2.53709998		 0.00050359		-0.00018357		-0.00036003
Si		4.85007349		5.11288199		0.17612847		 0.00050359		 0.00018357		-0.00036003
Si		4.53111810		2.56411785		4.54581456		-0.00050359		-0.00018357		 0.00036003
Si		0.16267182		6.55846068		1.24375980		 0.00002004		 0.00041205		 0.00001235
Si		9.21851977		1.11853916		3.47818423		-0.00002004		-0.00041205		-0.00001235
Si		9.50707446		2.71996126		1.11721172		-0.00002004		 0.00041205		-0.00001235
Si		-0.12588187		4.95703858		3.60473132		 0.00002004		-0.00041205		 0.00001235
O		3.85542654		1.29971648		0.53310663		 0.00017341		-0.00005052		 0.00033759
O		5.52576505		6.37728435		4.18883640		-0.00017341		 0.00005052		-0.00033759
O		5.81431875		5.13821590		1.82786388		-0.00017341		-0.00005052		-0.00033759
O		3.56687285		2.53878393		2.89407915		 0.00017341		 0.00005052		 0.00033759
O		3.84722488		3.70875870		0.40467145		 0.00034489		-0.00007791		 0.00090799
O		5.53396771		3.96824113		4.31727257		-0.00034489		 0.00007791		-0.00090799
O		5.82252239		7.54725912		1.95630106		-0.00034489		-0.00007791		-0.00090799
O		3.55867019		0.12974072		2.76564197		 0.00034489		 0.00007791		 0.00090799
O		5.97407676		2.25089645		1.26217568		-0.00015161		-0.00021293		 0.00017012
O		3.40711483		5.42610438		3.45976834		 0.00015161		 0.00021293		-0.00017012
O		3.69566852		6.08939687		1.09879583		 0.00015161		-0.00021293		-0.00017012
O		5.68552307		1.58760396		3.62314720		-0.00015161		 0.00021293		 0.00017012
O		1.29394067		2.69923306		1.02371722		 0.00007558		-0.00066339		 0.00026118
O		8.08725092		4.97776678		3.69822581		-0.00007558		 0.00066339		-0.00026118
O		8.37580561		6.53773347		1.33725429		-0.00007558		-0.00066339		-0.00026118
O		1.00538598		1.13926736		3.38468874		 0.00007558		 0.00066339		 0.00026118
O		0.93715569		0.22186495		0.93636102		 0.00017228		 0.00017949		 0.00036295
O		8.44403590		7.45513489		3.78558201		-0.00017228		-0.00017949		-0.00036295
O		8.73258959		4.06036636		1.42460950		-0.00017228		 0.00017949		-0.00036295
O		0.64860200		3.61663547		3.29733254		 0.00017228		-0.00017949		 0.00036295
O		1.03737901		5.44299266		0.32817478		-0.00087514		-0.00010286		-0.00004809
O		8.34381258		2.23400717		4.39376825		 0.00087514		 0.00010286		 0.00004809
O		8.63236727		1.60449324		2.03279674		 0.00087514		-0.00010286		 0.00004809
O		0.74882532		6.07250659		2.68914729		-0.00087514		 0.00010286		-0.00004809
