# total energy = -18377.0294657 eV	

CRYSTAL	
PRIMVEC	
		4.81500175		0.00000000		-0.77040243	
		0.00000000		11.07999810		0.00000000	
		-1.01919807		0.00000000		6.37000135	
PRIMCOORD
   28 1	
Mg		0.00000000		0.00000000		0.00000000		-0.00000000		0.00000000		-0.00000000	
Mg		2.40749990		5.54000002		-0.38520024		0.00000000		0.00000000		0.00000000	
Mg		-0.50960001		0.00000000		3.18500019		0.00000000		-0.00000000		0.00000000	
Mg		1.89789989		5.54000002		2.79979995		0.00000000		0.00000000		0.00000000	
Ca		4.47834500		2.84755982		0.83519696		 0.00041322		-0.00056945		-0.00009750	
Ca		-0.68254521		8.23243974		4.76440294		-0.00041322		 0.00056945		 0.00009750	
Ca		1.56124509		2.69244021		4.40539690		 0.00041322		 0.00056945		-0.00009750	
Ca		2.23455518		8.38755984		1.19420300		-0.00041322		-0.00056945		 0.00009750	
Si		1.68564486		0.95288020		1.28202900		 0.00069244		-0.00029313		 0.00020873	
Si		2.11015492		10.12711985		4.31757089		-0.00069244		 0.00029313		-0.00020873	
Si		3.58354475		4.58711983		4.08182895		 0.00069244		 0.00029313		 0.00020873	
Si		0.21225503		6.49287973		1.51777095		-0.00069244		-0.00029313		-0.00020873	
O		3.42386000		0.74236013		1.00391398		 0.00011140		 0.00037109		-0.00032408	
O		0.37193978		10.33763992		4.59568592		-0.00011140		-0.00037109		 0.00032408	
O		0.50676009		4.79763989		4.57411391		 0.00011140		-0.00037109		-0.00032408	
O		3.28904018		6.28236015		1.02548598		-0.00011140		 0.00037109		 0.00032408	
O		3.28904018		5.14111997		1.02548598		-0.00018025		 0.00000363		-0.00024584	
O		0.50676009		5.93888007		4.57411391		 0.00018025		-0.00000363		 0.00024584	
O		0.37193978		0.39888005		4.59568592		-0.00018025		-0.00000363		-0.00024584	
O		3.42386000		10.68112000		1.00391398		 0.00018025		 0.00000363		 0.00024584	
O		1.17317420		1.69523984		-0.00149993		-0.00019975		 0.00023138		 0.00027575	
O		2.62262607		9.38475972		5.60109983		 0.00019975		-0.00023138		-0.00027575	
O		2.62262607		3.84476018		5.60109983		 0.00038356		-0.00016329		-0.00012869	
O		1.17317420		7.23523986		-0.00149993		-0.00038356		 0.00016329		 0.00012869	
O		3.07107410		9.38475972		2.79830002		-0.00038356		-0.00016329		 0.00012869	
O		0.72472618		1.69523984		2.80129988		 0.00038356		 0.00016329		-0.00012869	
O		0.72472618		7.23523986		2.80129988		 0.00019975		 0.00023138		-0.00027575	
O		3.07107410		3.84476018		2.79830002		-0.00019975		-0.00023138		 0.00027575	
