# total energy = -18384.6933939 eV	

CRYSTAL	
PRIMVEC	
		4.81499869		0.00000000		-0.38519893	
		0.00000000		11.08000120		0.00000000	
		-0.50960062		0.00000000		6.37000056	
PRIMCOORD
   28 1	
Mg		0.00000000		0.00000000		0.00000000		-0.00000000		0.00000000		-0.00000000	
Mg		2.40749983		5.54000012		-0.19259995		-0.00000000		0.00000000		-0.00000000	
Mg		-0.25479983		0.00000000		3.18499980		0.00000000		0.00000000		0.00000000	
Mg		2.15270000		5.54000012		2.99239985		0.00000000		0.00000000		0.00000000	
Ca		4.60574503		2.84755984		1.21384783		-0.00006283		 0.00023657		-0.00006671	
Ca		-0.30034503		8.23243992		4.77095187		 0.00006283		-0.00023657		 0.00006671	
Ca		1.94344489		2.69243980		4.59144806		-0.00006283		-0.00023657		-0.00006671	
Ca		2.36195511		8.38755995		1.39335212		 0.00006283		 0.00023657		 0.00006671	
Si		1.81304482		0.95288008		1.43726417		-0.00087099		 0.00018647		 0.00054948	
Si		2.49235517		10.12712015		4.54753601		 0.00087099		-0.00018647		-0.00054948	
Si		3.96574482		4.58712003		4.42966402		-0.00087099		-0.00018647		 0.00054948	
Si		0.33965518		6.49288020		1.55513616		 0.00087099		 0.00018647		-0.00054948	
O		3.55126024		0.74235990		1.29820710		 0.00003503		-0.00015879		-0.00019322	
O		0.75414024		10.33763985		4.68659309		-0.00003503		 0.00015879		 0.00019322	
O		0.88896010		4.79764022		4.67580684		 0.00003503		 0.00015879		-0.00019322	
O		3.41643989		6.28236001		1.30899286		-0.00003503		-0.00015879		 0.00019322	
O		3.41643989		5.14112009		1.30899286		-0.00017699		 0.00016288		 0.00044121	
O		0.88896010		5.93888014		4.67580684		 0.00017699		-0.00016288		-0.00044121	
O		0.75414024		0.39888002		4.68659309		-0.00017699		-0.00016288		 0.00044121	
O		3.55126024		10.68112021		1.29820710		 0.00017699		 0.00016288		-0.00044121	
O		1.18846223		1.69523998		0.09480014		 0.00038300		 0.00023314		-0.00024480	
O		3.11693824		9.38476025		5.89000004		-0.00038300		-0.00023314		 0.00024480	
O		3.11693824		3.84476014		5.89000004		-0.00000231		-0.00006804		-0.00038314	
O		1.18846223		7.23524010		0.09480014		 0.00000231		 0.00006804		 0.00038314	
O		3.34116223		9.38476025		3.08719999		 0.00000231		-0.00006804		 0.00038314	
O		0.96423825		1.69523998		2.89760019		-0.00000231		 0.00006804		-0.00038314	
O		0.96423825		7.23524010		2.89760019		-0.00038300		 0.00023314		 0.00024480	
O		3.34116223		3.84476014		3.08719999		 0.00038300		-0.00023314		-0.00024480	
