# total energy = -49438.731031 eV

CRYSTAL
PRIMVEC
		14.02400194		1.68287684		0.00000000
		0.61307876		5.10899912		0.00000000
		0.00000000		0.00000000		8.73299308
PRIMECORD
   70 1
Mg		2.62858315		1.96654848		0.04628494		-0.00022384		-0.00006811		 0.00005672
Mg		12.00849615		4.82533313		0.04628494		 0.00022384		 0.00006811		 0.00005672
Mg		9.54506643		2.01200572		4.41278430		-0.00056771		 0.00008017		-0.00010051
Mg		5.09201427		4.77987448		4.41278430		 0.00056771		-0.00008017		-0.00010051
Mg		3.00167205		4.56881324		1.53002171		 0.00014361		-0.00033318		 0.00003673
Mg		11.63540725		2.22306696		1.53002171		-0.00014361		 0.00033318		 0.00003673
Mg		9.90846726		4.53354832		5.89652107		-0.00047859		-0.00023636		 0.00001516
Mg		4.72861203		2.25833047		5.89652107		 0.00047859		 0.00023636		 0.00001516
Mg		4.75596293		2.31347860		2.83123884		 0.00006142		 0.00028086		-0.00015740
Mg		9.88111637		4.47840160		2.83123884		-0.00006142		-0.00028086		-0.00015740
Mg		11.65012933		2.17296838		7.19773820		 0.00006235		 0.00023308		 0.00007197
Mg		2.98695138		4.61891182		7.19773820		-0.00006235		-0.00023308		 0.00007197
Mg		0.30653938		2.55449956		7.23616421		0.00000000		0.00000000		 0.00053104
Mg		7.01199956		0.84143983		2.86966343		0.00000000		0.00000000		 0.00045304
Mg		0.30653938		2.55449956		1.63307064		0.00000000		0.00000000		-0.00028867
Mg		7.01199956		0.84143983		5.99957142		0.00000000		0.00000000		 0.00009956
Mg		0.00000000		0.00000000		5.78561321		0.00000000		0.00000000		 0.00064994
Mg		7.31854035		3.39593939		1.41911243		0.00000000		0.00000000		 0.00035115
Mg		0.00000000		0.00000000		3.01725150		0.00000000		0.00000000		 0.00005041
Mg		7.31854035		3.39593939		7.38375086		0.00000000		0.00000000		-0.00010560
Si		0.00000000		0.00000000		0.06724445		0.00000000		0.00000000		-0.00022337
Si		7.31854035		3.39593939		4.43374382		0.00000000		0.00000000		 0.00016510
Si		5.29008229		0.70580966		0.04453773		-0.00029628		-0.00022046		 0.00005577
Si		9.34699701		6.08607054		0.04453773		 0.00029628		 0.00022046		 0.00005577
Si		12.59133412		3.95767661		4.41103850		-0.00019828		-0.00005221		-0.00008655
Si		2.04574659		2.83420359		4.41103850		 0.00019828		 0.00005221		-0.00008655
O		6.25871849		4.32015934		8.67710905		 0.00014970		-0.00008255		-0.00008498
O		8.37836222		2.47172086		8.67710905		-0.00014970		 0.00008255		-0.00008498
O		13.32123613		5.58258040		4.31060828		 0.00012802		-0.00025818		 0.00013798
O		1.31584457		1.20929839		4.31060828		-0.00012802		 0.00025818		 0.00013798
O		1.52300460		3.67281709		0.04366482		 0.00012450		 0.00016652		-0.00024356
O		13.11407469		3.11906311		0.04366482		-0.00012450		-0.00016652		-0.00024356
O		8.60477409		5.09566125		4.41016419		 0.00000468		 0.00002777		 0.00009154
O		6.03230662		1.69621754		4.41016419		-0.00000468		-0.00002777		 0.00009154
O		3.51247591		0.53227751		3.01375848		-0.00048755		 0.00021581		-0.00042166
O		11.12460338		6.25960410		3.01375848		 0.00048755		-0.00021581		-0.00042166
O		10.80404109		3.70342089		7.38025784		-0.00031127		 0.00004572		-0.00009685
O		3.83303962		3.08845931		7.38025784		 0.00031127		-0.00004572		-0.00009685
O		3.89282204		3.04527896		1.41474652		-0.00014695		-0.00015047		-0.00036687
O		10.74425725		3.74660124		1.41474652		 0.00014695		 0.00015047		-0.00036687
O		11.19664738		6.31860260		5.78124588		 0.00047676		 0.00014891		 0.00005997
O		3.44043192		0.47327760		5.78124588		-0.00047676		-0.00014891		 0.00005997
O		1.15410647		0.86359429		1.33702160		 0.00032183		-0.00021169		-0.00009298
O		13.48297282		5.92828450		1.33702160		-0.00032183		 0.00021169		-0.00009298
O		8.29607930		2.78814323		5.70352238		-0.00007549		 0.00007973		-0.00006864
O		6.34100000		4.00373697		5.70352238		 0.00007549		-0.00007973		-0.00006864
O		6.42417843		4.02882510		3.16047223		-0.00014388		 0.00002643		 0.00035674
O		8.21290228		2.76305510		3.16047223		 0.00014388		-0.00002643		 0.00035674
O		13.56247320		5.92271940		7.52697160		 0.00005145		 0.00011901		-0.00000942
O		1.07460751		0.86916080		7.52697160		-0.00005145		-0.00011901		-0.00000942
O		5.90674871		1.47923102		1.39640712		-0.00027239		 0.00011027		 0.00005052
O		8.73033059		5.31264918		1.39640712		 0.00027239		-0.00011027		 0.00005052
O		13.03768738		3.31181745		5.76290649		-0.00015309		 0.00015000		-0.00007413
O		1.59939333		3.48006276		5.76290649		 0.00015309		-0.00015000		-0.00007413
O		1.66669286		3.64927278		3.03821101		-0.00032679		 0.00002900		-0.00003242
O		12.97038643		3.14260742		3.03821101		 0.00032679		-0.00002900		-0.00003242
O		8.75839337		5.15488292		7.40471037		 0.00016465		 0.00026270		 0.00003603
O		5.87868593		1.63699728		7.40471037		-0.00016465		-0.00026270		 0.00003603
O		3.64637723		0.46173496		0.06113132		-0.00007255		 0.00018545		 0.00005823
O		10.99070206		6.33014524		0.06113132		 0.00007255		-0.00018545		 0.00005823
O		10.95903186		3.80862947		4.42763068		-0.00025113		 0.00010592		-0.00011276
O		3.67804744		2.98325073		4.42763068		 0.00025113		-0.00010592		-0.00011276
H		4.57504784		3.57026394		0.87329931		-0.00007437		 0.00008660		-0.00010564
H		10.06203145		3.22161626		0.87329931		 0.00007437		-0.00008660		-0.00010564
H		11.77097103		5.94440351		5.23980009		 0.00022015		 0.00006831		 0.00033146
H		2.86610827		0.84747528		5.23980009		-0.00022015		-0.00006831		 0.00033146
H		3.89683484		1.37399843		3.92984971		-0.00009049		 0.00022561		-0.00008289
H		10.74024586		5.41788319		3.92984971		 0.00009049		-0.00022561		-0.00008289
H		10.99466543		2.93069729		8.29635049		 0.00009970		 0.00000694		-0.00006281
H		3.64241387		3.86118291		8.29635049		-0.00009970		-0.00000694		-0.00006281
