# total energy = -21536.3659603 eV

CRYSTAL
PRIMVEC
		5.18479989		0.00000000		0.00000000
		0.00000000		8.03070025		0.00000000
		-0.14435001		-0.09960519		9.18819646
PRIMECORD
   42 1
Mg		0.00000000		0.00000000		0.00000000		0.00000000		0.00000000		0.00000000
Mg		2.59239994		4.01535013		0.00000000		0.00000000		0.00000000		0.00000000
Mg		2.59239994		1.33783391		0.00000000		-0.00002935		-0.00020980		-0.00009447
Mg		2.59239994		6.69286582		0.00000000		 0.00002935		 0.00020980		 0.00009447
Mg		0.00000000		5.35318404		0.00000000		-0.00002982		-0.00023434		-0.00009434
Mg		0.00000000		2.67751569		0.00000000		 0.00002982		 0.00023434		 0.00009434
Si		4.28040591		1.31077704		2.67376605		 0.00015552		 0.00018984		-0.00006010
Si		0.76004293		6.62032010		6.51443300		-0.00015552		-0.00018984		 0.00006010
Si		1.68800597		5.32612664		2.67376605		 0.00013625		 0.00014749		-0.00003464
Si		3.35244287		2.60496894		6.51443300		-0.00013625		-0.00014749		 0.00003464
Si		1.68800597		2.64660392		2.67376605		 0.00011876		 0.00018726		-0.00011137
Si		3.35244287		5.28449270		6.51443300		-0.00011876		-0.00018726		 0.00011137
Si		4.28040591		6.66195404		2.67376605		 0.00014019		 0.00014834		-0.00013825
Si		0.76004293		1.26914309		6.51443300		-0.00014019		-0.00014834		 0.00013825
O		1.71272606		2.66275094		1.08053200		-0.00005645		 0.00027200		-0.00017534
O		3.32772382		5.26834568		8.10766705		 0.00005645		-0.00027200		 0.00017534
O		4.30512600		6.67810106		1.08053200		-0.00005685		 0.00026676		-0.00014162
O		0.73532387		1.25299607		8.10766705		 0.00005685		-0.00026676		 0.00014162
O		4.30512600		1.32925307		1.08053200		-0.00008889		-0.00011073		-0.00010517
O		0.73532387		6.60184303		8.10766705		 0.00008889		 0.00011073		 0.00010517
O		1.71272606		5.34460268		1.08053200		-0.00008831		-0.00011594		-0.00013717
O		3.32772382		2.58649394		8.10766705		 0.00008831		 0.00011594		 0.00013717
O		1.71012899		-0.01121524		1.03459104		 0.00007242		 0.00003230		 0.00035589
O		3.33031985		-0.08838788		8.15360801		-0.00007242		-0.00003230		-0.00035589
O		4.30252893		4.00413489		1.03459104		 0.00001842		 0.00003132		-0.00027782
O		0.73792094		3.92696173		8.15360801		-0.00001842		-0.00003132		 0.00027782
O		1.77272715		3.98067781		3.19841180		-0.00040520		 0.00012195		-0.00004168
O		3.26772168		3.95041777		5.98978673		 0.00040520		-0.00012195		 0.00004168
O		4.36512710		-0.03467179		3.19841180		-0.00039625		 0.00011892		-0.00002977
O		0.67532174		-0.06493184		5.98978673		 0.00039625		-0.00011892		 0.00002977
O		2.93016995		1.90056721		3.20576281		 0.00006832		-0.00009017		 0.00066841
O		2.11027888		6.03052993		5.98243676		-0.00006832		 0.00009017		-0.00066841
O		0.33777001		5.91591682		3.20576281		 0.00006787		-0.00006947		 0.00066331
O		4.70267986		2.01517980		5.98243676		-0.00006787		 0.00006947		-0.00066331
O		0.33771816		2.04528016		3.20576281		-0.00001225		 0.00041048		 0.00072272
O		4.70273067		5.88581698		5.98243676		 0.00001225		-0.00041048		-0.00072272
O		2.93011914		6.06062976		3.20576281		-0.00001309		 0.00043107		 0.00072834
O		2.11033073		1.87046685		5.98243676		 0.00001309		-0.00043107		-0.00072834
H		1.69733912		-0.00793274		1.86520376		 0.00052706		 0.00024411		-0.00067412
H		3.34311075		7.93902884		7.32299477		-0.00052706		-0.00024411		 0.00067412
H		4.28973907		4.00741790		1.86520376		 0.00058374		 0.00024567		-0.00011794
H		0.75071081		3.92367872		7.32299477		-0.00058374		-0.00024567		 0.00011794
