# total energy = -21542.2254275 eV

CRYSTAL
PRIMVEC
		5.18479989		0.00000000		0.00000000
		0.00000000		9.59222717		0.00000000
		-0.14435001		-0.11897042		9.18819646
PRIMECORD
   42 1
Mg		0.00000000		0.00000000		0.00000000		0.00000000		0.00000000		0.00000000
Mg		2.59239994		4.79611307		0.00000000		0.00000000		0.00000000		0.00000000
Mg		2.59239994		1.59796881		0.00000000		-0.00006079		 0.00025212		-0.00006226
Mg		2.59239994		7.99425681		0.00000000		 0.00006079		-0.00025212		 0.00006226
Mg		0.00000000		6.39408084		0.00000000		-0.00006079		 0.00024548		-0.00006286
Mg		0.00000000		3.19814374		0.00000000		 0.00006079		-0.00024548		 0.00006286
Si		4.28040591		1.56564987		2.67376605		-0.00025418		-0.00024222		-0.00010154
Si		0.76004293		7.90760377		6.51443300		 0.00025418		 0.00024222		 0.00010154
Si		1.68800597		6.36176294		2.67376605		-0.00025247		-0.00022912		-0.00007652
Si		3.35244287		3.11149070		6.51443300		 0.00025247		 0.00022912		 0.00007652
Si		1.68800597		3.16122071		2.67376605		-0.00006713		-0.00011796		 0.00001942
Si		3.35244287		6.31203293		6.51443300		 0.00006713		 0.00011796		-0.00001942
Si		4.28040591		7.95733378		2.67376605		-0.00006921		-0.00010530		-0.00000573
Si		0.76004293		1.51591987		6.51443300		 0.00006921		 0.00010530		 0.00000573
O		1.71272606		3.18050817		1.08053200		-0.00007108		-0.00002870		-0.00012050
O		3.32772382		6.29274703		8.10766705		 0.00007108		 0.00002870		 0.00012050
O		4.30512600		7.97661968		1.08053200		-0.00006741		-0.00003790		-0.00010056
O		0.73532387		1.49663397		8.10766705		 0.00006741		 0.00003790		 0.00010056
O		4.30512600		1.58771897		1.08053200		-0.00031334		-0.00007874		-0.00011233
O		0.73532387		7.88553467		8.10766705		 0.00031334		 0.00007874		 0.00011233
O		1.71272606		6.38383204		1.08053200		-0.00031717		-0.00008739		-0.00013230
O		3.32772382		3.08942316		8.10766705		 0.00031717		 0.00008739		 0.00013230
O		1.71012899		-0.01339597		1.03459104		 0.00047008		-0.00001100		 0.00039159
O		3.33031985		-0.10557497		8.15360801		-0.00047008		 0.00001100		-0.00039159
O		4.30252893		4.78271710		1.03459104		 0.00047380		-0.00000812		-0.00015367
O		0.73792094		4.69053810		8.15360801		-0.00047380		 0.00000812		 0.00015367
O		1.77272715		4.75469896		3.19841180		 0.00025020		-0.00016100		 0.00087447
O		3.26772168		4.71855468		5.98978673		-0.00025020		 0.00016100		-0.00087447
O		4.36512710		-0.04141411		3.19841180		 0.00024808		-0.00016058		 0.00087424
O		0.67532174		-0.07755683		5.98978673		-0.00024808		 0.00016058		-0.00087424
O		2.93016995		2.27012108		3.20576281		 0.00003581		 0.00020766		-0.00017159
O		2.11027888		7.20313308		5.98243676		-0.00003581		-0.00020766		 0.00017159
O		0.33777001		7.06623363		3.20576281		 0.00006269		 0.00019247		-0.00017375
O		4.70267986		2.40702002		5.98243676		-0.00006269		-0.00019247		 0.00017375
O		0.33771816		2.44297297		3.20576281		-0.00001736		-0.00025271		-0.00056080
O		4.70273067		7.03028067		5.98243676		 0.00001736		 0.00025271		 0.00056080
O		2.93011914		7.23908604		3.20576281		-0.00004444		-0.00026822		-0.00055914
O		2.11033073		2.23416812		5.98243676		 0.00004444		 0.00026822		 0.00055914
H		1.69733912		-0.00947522		1.86520376		 0.00022014		 0.00002492		-0.00088161
H		3.34311075		9.48272887		7.32299477		-0.00022014		-0.00002492		 0.00088161
H		4.28973907		4.78663785		1.86520376		 0.00021412		 0.00002304		-0.00038274
H		0.75071081		4.68661683		7.32299477		-0.00021412		-0.00002304		 0.00038274
