# total energy = -21541.5171223 eV

CRYSTAL
PRIMVEC
		5.18479989		0.00000000		0.00000000
		0.00000000		9.81529800		0.00000000
		-0.14435001		-0.12173910		9.18819646
PRIMECORD
   42 1
Mg		0.00000000		0.00000000		0.00000000		0.00000000		0.00000000		0.00000000
Mg		2.59239994		4.90765004		0.00000000		0.00000000		0.00000000		0.00000000
Mg		2.59239994		1.63513086		0.00000000		 0.00002454		 0.00005690		 0.00003410
Mg		2.59239994		8.18016974		0.00000000		-0.00002454		-0.00005690		-0.00003410
Mg		0.00000000		6.54278090		0.00000000		 0.00002438		 0.00005950		 0.00003342
Mg		0.00000000		3.27251918		0.00000000		-0.00002438		-0.00005950		-0.00003342
Si		4.28040591		1.60206117		2.67376605		 0.00004577		 0.00015718		 0.00017532
Si		0.76004293		8.09150188		6.51443300		-0.00004577		-0.00015718		-0.00017532
Si		1.68800597		6.50971069		2.67376605		 0.00004545		 0.00016398		 0.00016843
Si		3.35244287		3.18385081		6.51443300		-0.00004545		-0.00016398		-0.00016843
Si		1.68800597		3.23473806		2.67376605		-0.00000045		-0.00005761		 0.00015678
Si		3.35244287		6.45882499		6.51443300		 0.00000045		 0.00005761		-0.00015678
Si		4.28040591		8.14238758		2.67376605		-0.00000096		-0.00004960		 0.00016329
Si		0.76004293		1.55117391		6.51443300		 0.00000096		 0.00004960		-0.00016329
O		1.71272606		3.25447297		1.08053200		-0.00005920		 0.00004277		 0.00009361
O		3.32772382		6.43909008		8.10766705		 0.00005920		-0.00004277		-0.00009361
O		4.30512600		8.16212300		1.08053200		-0.00005831		 0.00004559		 0.00008598
O		0.73532387		1.53143901		8.10766705		 0.00005831		-0.00004559		-0.00008598
O		4.30512600		1.62464201		1.08053200		 0.00005486		 0.00004489		 0.00013960
O		0.73532387		8.06892000		8.10766705		-0.00005486		-0.00004489		-0.00013960
O		1.71272606		6.53229308		1.08053200		 0.00005487		 0.00004746		 0.00014805
O		3.32772382		3.16126997		8.10766705		-0.00005487		-0.00004746		-0.00014805
O		1.71012899		-0.01370809		1.03459104		-0.00054001		-0.00007878		-0.00017976
O		3.33031985		-0.10802997		8.15360801		 0.00054001		 0.00007878		 0.00017976
O		4.30252893		4.89394298		1.03459104		-0.00054520		-0.00007840		 0.00001807
O		0.73792094		4.79962007		8.15360801		 0.00054520		 0.00007840		-0.00001807
O		1.77272715		4.86527311		3.19841180		-0.00025965		 0.00003925		-0.00011758
O		3.26772168		4.82828890		5.98978673		 0.00025965		-0.00003925		 0.00011758
O		4.36512710		-0.04237692		3.19841180		-0.00025892		 0.00003806		-0.00012073
O		0.67532174		-0.07936114		5.98978673		 0.00025892		-0.00003806		 0.00012073
O		2.93016995		2.32291478		3.20576281		-0.00005020		 0.00000290		 0.00025170
O		2.11027888		7.37064775		5.98243676		 0.00005020		-0.00000290		-0.00025170
O		0.33777001		7.23056482		3.20576281		-0.00004567		-0.00000148		 0.00025143
O		4.70267986		2.46299771		5.98243676		 0.00004567		 0.00000148		-0.00025143
O		0.33771816		2.49978594		3.20576281		 0.00002171		 0.00010740		 0.00035206
O		4.70273067		7.19377608		5.98243676		-0.00002171		-0.00010740		-0.00035206
O		2.93011914		7.40743598		3.20576281		 0.00001802		 0.00010349		 0.00035262
O		2.11033073		2.28612604		5.98243676		-0.00001802		-0.00010349		-0.00035262
H		1.69733912		-0.00969506		1.86520376		-0.00023643		-0.00011259		 0.00001852
H		3.34311075		9.70325759		7.32299477		 0.00023643		 0.00011259		-0.00001852
H		4.28973907		4.89795498		1.86520376		-0.00023338		-0.00011293		-0.00016563
H		0.75071081		4.79560807		7.32299477		 0.00023338		 0.00011293		 0.00016563
