# total energy = -21539.916261 eV

CRYSTAL
PRIMVEC
		5.18479989		0.00000000		0.00000000
		0.00000000		8.47685228		0.00000000
		-0.14435001		-0.10513737		9.18819646
PRIMECORD
   42 1
Mg		0.00000000		0.00000000		0.00000000		0.00000000		0.00000000		0.00000000
Mg		2.59239994		4.23842510		0.00000000		0.00000000		0.00000000		0.00000000
Mg		2.59239994		1.41215906		0.00000000		 0.00002262		-0.00045967		-0.00004731
Mg		2.59239994		7.06469167		0.00000000		-0.00002262		 0.00045967		 0.00004731
Mg		0.00000000		5.65058313		0.00000000		 0.00002323		-0.00049436		-0.00004207
Mg		0.00000000		2.82626708		0.00000000		-0.00002323		 0.00049436		 0.00004207
Si		4.28040591		1.38359807		2.67376605		-0.00038890		-0.00006669		 0.00011314
Si		0.76004293		6.98811477		6.51443300		 0.00038890		 0.00006669		-0.00011314
Si		1.68800597		5.62202266		2.67376605		-0.00037887		-0.00020743		 0.00008895
Si		3.35244287		2.74969018		6.51443300		 0.00037887		 0.00020743		-0.00008895
Si		1.68800597		2.79363706		2.67376605		-0.00037459		 0.00035267		 0.00011140
Si		3.35244287		5.57807577		6.51443300		 0.00037459		-0.00035267		-0.00011140
Si		4.28040591		7.03206165		2.67376605		-0.00041340		 0.00012998		 0.00010589
Si		0.76004293		1.33965119		6.51443300		 0.00041340		-0.00012998		-0.00010589
O		1.71272606		2.81068106		1.08053200		-0.00013624		 0.00004858		-0.00005169
O		3.32772382		5.56103178		8.10766705		 0.00013624		-0.00004858		 0.00005169
O		4.30512600		7.04910564		1.08053200		-0.00013509		 0.00006748		-0.00002453
O		0.73532387		1.32260719		8.10766705		 0.00013509		-0.00006748		 0.00002453
O		4.30512600		1.40310018		1.08053200		-0.00007150		-0.00001196		-0.00000171
O		0.73532387		6.96861266		8.10766705		 0.00007150		 0.00001196		 0.00000171
O		1.71272606		5.64152580		1.08053200		-0.00007245		 0.00000422		-0.00002817
O		3.32772382		2.73018807		8.10766705		 0.00007245		-0.00000422		 0.00002817
O		1.71012899		-0.01183794		1.03459104		 0.00050844		 0.00004502		-0.00003009
O		3.33031985		-0.09329892		8.15360801		-0.00050844		-0.00004502		 0.00003009
O		4.30252893		4.22658665		1.03459104		 0.00049678		 0.00004195		-0.00046455
O		0.73792094		4.14512567		8.15360801		-0.00049678		-0.00004195		 0.00046455
O		1.77272715		4.20182716		3.19841180		 0.00051539		 0.00000999		-0.00004885
O		3.26772168		4.16988568		5.98978673		-0.00051539		-0.00000999		 0.00004885
O		4.36512710		-0.03659795		3.19841180		 0.00054489		 0.00008555		 0.00000291
O		0.67532174		-0.06853891		5.98978673		-0.00054489		-0.00008555		-0.00000291
O		2.93016995		2.00615410		3.20576281		 0.00009697		 0.00035526		 0.00028462
O		2.11027888		6.36555873		5.98243676		-0.00009697		-0.00035526		-0.00028462
O		0.33777001		6.24457869		3.20576281		-0.00002793		 0.00045553		 0.00027822
O		4.70267986		2.12713415		5.98243676		 0.00002793		-0.00045553		-0.00027822
O		0.33771816		2.15890712		3.20576281		 0.00000430		-0.00025334		 0.00026947
O		4.70273067		6.21280675		5.98243676		-0.00000430		 0.00025334		-0.00026947
O		2.93011914		6.39733067		3.20576281		 0.00013510		-0.00014984		 0.00027102
O		2.11033073		1.97438113		5.98243676		-0.00013510		 0.00014984		-0.00027102
H		1.69733912		-0.00837293		1.86520376		 0.00045285		 0.00002773		-0.00005238
H		3.34311075		8.38008577		7.32299477		-0.00045285		-0.00002773		 0.00005238
H		4.28973907		4.23005165		1.86520376		 0.00046845		 0.00003100		 0.00033087
H		0.75071081		4.14166067		7.32299477		-0.00046845		-0.00003100		-0.00033087
