# total energy = -21542.2849312 eV

CRYSTAL
PRIMVEC
		5.18479989		0.00000000		0.00000000
		0.00000000		9.14607514		0.00000000
		-0.14435001		-0.11343824		9.18819646
PRIMECORD
   42 1
Mg		0.00000000		0.00000000		0.00000000		0.00000000		0.00000000		0.00000000
Mg		2.59239994		4.57303809		0.00000000		0.00000000		0.00000000		0.00000000
Mg		2.59239994		1.52364522		0.00000000		-0.00005085		-0.00014125		 0.00013046
Mg		2.59239994		7.62243096		0.00000000		 0.00005085		 0.00014125		-0.00013046
Mg		0.00000000		6.09668175		0.00000000		-0.00005095		-0.00013681		 0.00013036
Mg		0.00000000		3.04939287		0.00000000		 0.00005095		 0.00013681		-0.00013036
Si		4.28040591		1.49282884		2.67376605		-0.00004300		-0.00012772		-0.00008986
Si		0.76004293		7.53980806		6.51443300		 0.00004300		 0.00012772		 0.00008986
Si		1.68800597		6.06586693		2.67376605		-0.00002314		-0.00026413		-0.00018966
Si		3.35244287		2.96677101		6.51443300		 0.00002314		 0.00026413		 0.00018966
Si		1.68800597		3.01418808		2.67376605		-0.00004639		 0.00030992		-0.00031075
Si		3.35244287		6.01844986		6.51443300		 0.00004639		-0.00030992		 0.00031075
Si		4.28040591		7.58722462		2.67376605		-0.00006783		 0.00017807		-0.00021012
Si		0.76004293		1.44541281		6.51443300		 0.00006783		-0.00017807		 0.00021012
O		1.71272606		3.03257701		1.08053200		-0.00023700		 0.00006924		-0.00066889
O		3.32772382		6.00006093		8.10766705		 0.00023700		-0.00006924		 0.00066889
O		4.30512600		7.60561458		1.08053200		-0.00023940		 0.00009992		-0.00072173
O		0.73532387		1.42702284		8.10766705		 0.00023940		-0.00009992		 0.00072173
O		4.30512600		1.51387083		1.08053200		-0.00015442		 0.00002940		-0.00068635
O		0.73532387		7.51876607		8.10766705		 0.00015442		-0.00002940		 0.00068635
O		1.71272606		6.08690892		1.08053200		-0.00015160		 0.00006031		-0.00063389
O		3.32772382		2.94572902		8.10766705		 0.00015160		-0.00006031		 0.00063389
O		1.71012899		-0.01277275		1.03459104		-0.00062889		-0.00019173		-0.00059821
O		3.33031985		-0.10066393		8.15360801		 0.00062889		 0.00019173		 0.00059821
O		4.30252893		4.56026482		1.03459104		-0.00063646		-0.00019110		 0.00075704
O		0.73792094		4.47237313		8.15360801		 0.00063646		 0.00019110		-0.00075704
O		1.77272715		4.53355014		3.19841180		 0.00035531		 0.00030610		 0.00003571
O		3.26772168		4.49908781		5.98978673		-0.00035531		-0.00030610		-0.00003571
O		4.36512710		-0.03948795		3.19841180		 0.00036010		 0.00030263		 0.00005308
O		0.67532174		-0.07394976		5.98978673		-0.00036010		-0.00030263		-0.00005308
O		2.93016995		2.16453418		3.20576281		 0.00000384		 0.00002722		-0.00003249
O		2.11027888		6.86810376		5.98243676		-0.00000384		-0.00002722		 0.00003249
O		0.33777001		6.73757176		3.20576281		-0.00016988		 0.00012775		-0.00002860
O		4.70267986		2.29506619		5.98243676		 0.00016988		-0.00012775		 0.00002860
O		0.33771816		2.32934601		3.20576281		-0.00019093		 0.00041773		-0.00003112
O		4.70273067		6.70329193		5.98243676		 0.00019093		-0.00041773		 0.00003112
O		2.93011914		6.90238410		3.20576281		-0.00001574		 0.00051957		-0.00003384
O		2.11033073		2.13025384		5.98243676		 0.00001574		-0.00051957		 0.00003384
H		1.69733912		-0.00903400		1.86520376		-0.00028251		-0.00001240		 0.00083211
H		3.34311075		9.04167194		7.32299477		 0.00028251		 0.00001240		-0.00083211
H		4.28973907		4.56400306		1.86520376		-0.00028445		-0.00001216		-0.00040059
H		0.75071081		4.46863489		7.32299477		 0.00028445		 0.00001216		 0.00040059
