# total energy = -24716.6641919 eV

CRYSTAL
PRIMVEC
		9.27319965		0.00000000		0.00000000
		0.00000000		8.94476147		0.00000000
		0.00000000		0.00000000		5.32170382
PRIMECORD
   40 1
Mg		0.00000000		8.09322302		1.33042503		0.00000000		 0.00026479		0.00000000
Mg		0.00000000		0.85154216		3.99127508		0.00000000		-0.00026479		0.00000000
Mg		4.63659983		5.32392382		3.99127508		0.00000000		-0.00026479		0.00000000
Mg		4.63659983		3.62084043		1.33042503		0.00000000		 0.00026479		0.00000000
Mg		0.00000000		2.36767877		1.33042503		0.00000000		-0.00045302		0.00000000
Mg		0.00000000		6.57708547		3.99127508		0.00000000		 0.00045302		0.00000000
Mg		4.63659983		2.10470289		3.99127508		-0.00000000		 0.00045302		0.00000000
Mg		4.63659983		6.84006136		1.33042503		0.00000000		-0.00045302		0.00000000
Si		2.70591966		0.81934005		0.35442540		 0.00020397		-0.00011886		-0.00013982
Si		6.56727999		8.12542327		4.96727471		-0.00020397		 0.00011886		 0.00013982
Si		1.93068017		3.65304161		3.01527453		-0.00020397		 0.00011886		-0.00013982
Si		7.34251948		5.29172263		2.30642465		 0.00020397		-0.00011886		 0.00013982
Si		6.56727999		0.81934005		2.30642465		-0.00020397		-0.00011886		 0.00013982
Si		2.70591966		8.12542327		3.01527453		 0.00020397		 0.00011886		-0.00013982
Si		7.34251948		3.65304161		4.96727471		 0.00020397		 0.00011886		 0.00013982
Si		1.93068017		5.29172263		0.35442540		-0.00020397		-0.00011886		-0.00013982
O		1.08774632		0.83722990		0.42147898		 0.00087076		-0.00042730		-0.00025080
O		8.18545333		8.10753434		4.90022113		-0.00087076		 0.00042730		 0.00025080
O		3.54885351		3.63515176		3.08232903		-0.00087076		 0.00042730		-0.00025080
O		5.72434614		5.30961156		2.23937107		 0.00087076		-0.00042730		 0.00025080
O		8.18545333		0.83722990		2.23937107		-0.00087076		-0.00042730		 0.00025080
O		1.08774632		8.10753434		3.08232903		 0.00087076		 0.00042730		-0.00025080
O		5.72434614		3.63515176		4.90022113		 0.00087076		 0.00042730		 0.00025080
O		3.54885351		5.30961156		0.42147898		-0.00087076		-0.00042730		-0.00025080
O		3.49321524		2.24155769		0.37251927		-0.00001292		 0.00069470		-0.00018081
O		5.77998442		6.70320655		4.94918084		 0.00001292		-0.00069470		 0.00018081
O		1.14338459		2.23082397		3.03336932		 0.00001292		-0.00069470		-0.00018081
O		8.12981506		6.71393935		2.28833079		-0.00001292		 0.00069470		 0.00018081
O		5.77998442		2.24155769		2.28833079		 0.00001292		 0.00069470		 0.00018081
O		3.49321524		6.70320655		3.03336932		-0.00001292		-0.00069470		-0.00018081
O		8.12981506		2.23082397		4.94918084		-0.00001292		-0.00069470		 0.00018081
O		1.14338459		6.71393935		0.37251927		 0.00001292		 0.00069470		-0.00018081
O		3.24747452		8.71488348		1.53903585		 0.00006047		-0.00034402		-0.00047776
O		6.02572513		0.22987984		3.78266425		-0.00006047		 0.00034402		 0.00047776
O		1.38912531		4.70226242		4.19988591		-0.00006047		 0.00034402		-0.00047776
O		7.88407434		4.24250182		1.12181420		 0.00006047		-0.00034402		 0.00047776
O		6.02572513		8.71488348		1.12181420		-0.00006047		-0.00034402		 0.00047776
O		3.24747452		0.22987984		4.19988591		 0.00006047		 0.00034402		-0.00047776
O		7.88407434		4.70226242		3.78266425		 0.00006047		 0.00034402		 0.00047776
O		1.38912531		4.24250182		1.53903585		-0.00006047		-0.00034402		-0.00047776
