# total energy = -24716.3727906 eV

CRYSTAL
PRIMVEC
		9.27319965		0.00000000		0.00000000
		0.00000000		8.50843888		0.00000000
		0.00000000		0.00000000		5.32170382
PRIMECORD
   40 1
Mg		0.00000000		7.69843138		1.33042503		0.00000000		-0.00049209		-0.00000000
Mg		0.00000000		0.81000286		3.99127508		0.00000000		 0.00049209		0.00000000
Mg		4.63659983		5.06421952		3.99127508		0.00000000		 0.00049209		0.00000000
Mg		4.63659983		3.44421379		1.33042503		0.00000000		-0.00049209		-0.00000000
Mg		0.00000000		2.25218293		1.33042503		0.00000000		 0.00066446		-0.00000000
Mg		0.00000000		6.25625131		3.99127508		-0.00000000		-0.00066446		0.00000000
Mg		4.63659983		2.00203466		3.99127508		-0.00000000		-0.00066446		0.00000000
Mg		4.63659983		6.50639958		1.33042503		0.00000000		 0.00066446		0.00000000
Si		2.70591966		0.77937256		0.35442540		 0.00019421		-0.00044914		 0.00048317
Si		6.56727999		7.72906168		4.96727471		-0.00019421		 0.00044914		-0.00048317
Si		1.93068017		3.47484503		3.01527453		-0.00019421		 0.00044914		 0.00048317
Si		7.34251948		5.03359014		2.30642465		 0.00019421		-0.00044914		-0.00048317
Si		6.56727999		0.77937256		2.30642465		-0.00019421		-0.00044914		-0.00048317
Si		2.70591966		7.72906168		3.01527453		 0.00019421		 0.00044914		 0.00048317
Si		7.34251948		3.47484503		4.96727471		 0.00019421		 0.00044914		-0.00048317
Si		1.93068017		5.03359014		0.35442540		-0.00019421		-0.00044914		 0.00048317
O		1.08774632		0.79638888		0.42147898		 0.00055618		-0.00060200		 0.00006335
O		8.18545333		7.71204443		4.90022113		-0.00055618		 0.00060200		-0.00006335
O		3.54885351		3.45782778		3.08232903		-0.00055618		 0.00060200		 0.00006335
O		5.72434614		5.05060646		2.23937107		 0.00055618		-0.00060200		-0.00006335
O		8.18545333		0.79638888		2.23937107		-0.00055618		-0.00060200		-0.00006335
O		1.08774632		7.71204443		3.08232903		 0.00055618		 0.00060200		 0.00006335
O		5.72434614		3.45782778		4.90022113		 0.00055618		 0.00060200		-0.00006335
O		3.54885351		5.05060646		0.42147898		-0.00055618		-0.00060200		 0.00006335
O		3.49321524		2.13221369		0.37251927		 0.00008603		 0.00037907		 0.00027222
O		5.77998442		6.37622055		4.94918084		-0.00008603		-0.00037907		-0.00027222
O		1.14338459		2.12200390		3.03336932		-0.00008603		-0.00037907		 0.00027222
O		8.12981506		6.38643034		2.28833079		 0.00008603		 0.00037907		-0.00027222
O		5.77998442		2.13221369		2.28833079		-0.00008603		 0.00037907		-0.00027222
O		3.49321524		6.37622055		3.03336932		 0.00008603		-0.00037907		 0.00027222
O		8.12981506		2.12200390		4.94918084		 0.00008603		-0.00037907		-0.00027222
O		1.14338459		6.38643034		0.37251927		-0.00008603		 0.00037907		 0.00027222
O		3.24747452		8.28976755		1.53903585		 0.00044305		-0.00020043		 0.00041909
O		6.02572513		0.21866668		3.78266425		-0.00044305		 0.00020043		-0.00041909
O		1.38912531		4.47288427		4.19988591		-0.00044305		 0.00020043		 0.00041909
O		7.88407434		4.03555090		1.12181420		 0.00044305		-0.00020043		-0.00041909
O		6.02572513		8.28976755		1.12181420		-0.00044305		-0.00020043		-0.00041909
O		3.24747452		0.21866668		4.19988591		 0.00044305		 0.00020043		 0.00041909
O		7.88407434		4.47288427		3.78266425		 0.00044305		 0.00020043		-0.00041909
O		1.38912531		4.03555090		1.53903585		-0.00044305		-0.00020043		 0.00041909
