# total energy = -49424.9867724 eV	

CRYSTAL	
PRIMVEC	
		16.40969977		0.00000000		0.00000000	
		0.00000000		8.81909777		0.00000000	
		0.00000000		0.00000000		5.18019762	
PRIMCOORD
   80 1	
Mg		6.17497003		5.76857396		4.48760654		 0.00007743		 0.00072868		 0.00006829	
Mg		10.23472975		3.05052709		0.69259271		-0.00007743		-0.00072868		-0.00006829	
Mg		2.02987986		3.05052709		1.89750774		-0.00007743		-0.00072868		 0.00006829	
Mg		14.37981991		5.76857396		3.28269316		 0.00007743		 0.00072868		-0.00006829	
Mg		10.23472975		1.35902344		3.28269316		-0.00007743		 0.00072868		-0.00006829	
Mg		6.17497003		7.46007761		1.89750774		 0.00007743		-0.00072868		 0.00006829	
Mg		14.37981991		7.46007761		0.69259271		 0.00007743		-0.00072868		-0.00006829	
Mg		2.02987986		1.35902344		4.48760654		-0.00007743		 0.00072868		 0.00006829	
Mg		6.18481584		4.29666656		1.85917468		-0.00015986		 0.00031494		-0.00006520	
Mg		10.22488557		4.52243449		3.32102622		 0.00015986		-0.00031494		 0.00006520	
Mg		2.02003404		4.52243449		4.44927349		 0.00015986		-0.00031494		-0.00006520	
Mg		14.38966409		4.29666656		0.73092577		-0.00015986		 0.00031494		 0.00006520	
Mg		10.22488557		8.70621544		0.73092577		 0.00015986		 0.00031494		 0.00006520	
Mg		6.18481584		0.11288561		4.44927349		-0.00015986		-0.00031494		-0.00006520	
Mg		14.38966409		0.11288561		3.32102622		-0.00015986		-0.00031494		 0.00006520	
Mg		2.02003404		8.70621544		1.85917468		 0.00015986		 0.00031494		-0.00006520	
Si		4.45523349		3.01436831		0.26211870		-0.00034111		-0.00048224		-0.00052161	
Si		11.95446629		5.80473274		4.91808220		 0.00034111		 0.00048224		 0.00052161	
Si		3.74961640		5.80473274		2.85221751		 0.00034111		 0.00048224		-0.00052161	
Si		12.66008338		3.01436831		2.32798175		-0.00034111		-0.00048224		 0.00052161	
Si		11.95446629		7.42391720		2.32798175		 0.00034111		-0.00048224		 0.00052161	
Si		4.45523349		1.39518221		2.85221751		-0.00034111		 0.00048224		-0.00052161	
Si		12.66008338		1.39518221		4.91808220		-0.00034111		 0.00048224		 0.00052161	
Si		3.74961640		7.42391720		0.26211870		 0.00034111		-0.00048224		-0.00052161	
Si		7.77163381		2.97556430		4.13431720		 0.00015423		 0.00012072		 0.00042245	
Si		8.63806432		5.84353511		1.04588206		-0.00015423		-0.00012072		-0.00042245	
Si		0.43321607		5.84353511		1.54421839		-0.00015423		-0.00012072		 0.00042245	
Si		15.97648370		2.97556430		3.63598251		 0.00015423		 0.00012072		-0.00042245	
Si		8.63806432		7.38511318		3.63598251		-0.00015423		 0.00012072		-0.00042245	
Si		7.77163381		1.43398623		1.54421839		 0.00015423		-0.00012072		 0.00042245	
Si		15.97648370		1.43398623		1.04588206		 0.00015423		-0.00012072		-0.00042245	
Si		0.43321607		7.38511318		4.13431720		-0.00015423		 0.00012072		 0.00042245	
O		3.01117991		3.00466854		0.17612695		-0.00055660		-0.00016242		-0.00031077	
O		13.39851987		5.81443251		5.00407231		 0.00055660		 0.00016242		 0.00031077	
O		5.19366998		5.81443251		2.76622740		 0.00055660		 0.00016242		-0.00031077	
O		11.21602980		3.00466854		2.41397350		-0.00055660		-0.00016242		 0.00031077	
O		13.39851987		7.41421742		2.41397350		 0.00055660		-0.00016242		 0.00031077	
O		3.01117991		1.40488363		2.76622740		-0.00055660		 0.00016242		-0.00031077	
O		11.21602980		1.40488363		5.00407231		-0.00055660		 0.00016242		 0.00031077	
O		5.19366998		7.41421742		0.17612695		 0.00055660		-0.00016242		-0.00031077	
O		5.10998051		4.43512668		0.22274855		-0.00017499		 0.00004271		-0.00003094	
O		11.29971926		4.38397437		4.95745235		 0.00017499		-0.00004271		 0.00003094	
O		3.09486938		4.38397437		2.81284900		 0.00017499		-0.00004271		-0.00003094	
O		13.31483040		4.43512668		2.36735026		-0.00017499		 0.00004271		 0.00003094	
O		11.29971926		0.02557452		2.36735026		 0.00017499		 0.00004271		 0.00003094	
O		5.10998051		8.79352489		2.81284900		-0.00017499		-0.00004271		-0.00003094	
O		13.31483040		8.79352489		4.95745235		-0.00017499		-0.00004271		 0.00003094	
O		3.09486938		0.02557452		0.22274855		 0.00017499		 0.00004271		-0.00003094	
O		4.96393418		1.96136772		4.30992724		-0.00022528		 0.00008630		-0.00047046	
O		11.44576559		6.85773169		0.87027366		 0.00022528		-0.00008630		 0.00047046	
O		3.24091571		6.85773169		1.71982679		 0.00022528		-0.00008630		-0.00047046	
O		13.16878407		1.96136772		3.46037411		-0.00022528		 0.00008630		 0.00047046	
O		11.44576559		6.37091825		3.46037411		 0.00022528		 0.00008630		 0.00047046	
O		4.96393418		2.44818116		1.71982679		-0.00022528		-0.00008630		-0.00047046	
O		13.16878407		2.44818116		0.87027366		-0.00022528		-0.00008630		 0.00047046	
O		3.24091571		6.37091825		4.30992724		 0.00022528		 0.00008630		-0.00047046	
O		9.22553321		3.01084023		4.13380029		 0.00030419		 0.00033229		 0.00039679	
O		7.18416656		5.80825918		1.04640061		-0.00030419		-0.00033229		-0.00039679	
O		15.38901645		5.80825918		1.54369984		-0.00030419		-0.00033229		 0.00039679	
O		1.02068333		3.01084023		3.63650106		 0.00030419		 0.00033229		-0.00039679	
O		7.18416656		7.42039075		3.63650106		-0.00030419		 0.00033229		-0.00039679	
O		9.22553321		1.39870866		1.54369984		 0.00030419		-0.00033229		 0.00039679	
O		1.02068333		1.39870866		1.04640061		 0.00030419		-0.00033229		-0.00039679	
O		15.38901645		7.42039075		4.13380029		-0.00030419		 0.00033229		 0.00039679	
O		7.09555418		4.26491707		3.57433783		-0.00012250		 0.00017225		 0.00012768	
O		9.31414559		4.55418234		1.60586142		 0.00012250		-0.00017225		-0.00012768	
O		1.10929570		4.55418234		0.98423738		 0.00012250		-0.00017225		 0.00012768	
O		15.30040407		4.26491707		4.19596187		-0.00012250		 0.00017225		-0.00012768	
O		9.31414559		8.67446760		4.19596187		 0.00012250		 0.00017225		-0.00012768	
O		7.09555418		0.14463345		0.98423738		-0.00012250		-0.00017225		 0.00012768	
O		15.30040407		0.14463345		1.60586142		-0.00012250		-0.00017225		-0.00012768	
O		1.10929570		8.67446760		3.57433783		 0.00012250		 0.00017225		 0.00012768	
O		7.35646841		1.72060625		3.12366020		 0.00030199		 0.00019782		 0.00036296	
O		9.05323137		7.09849316		2.05654070		-0.00030199		-0.00019782		-0.00036296	
O		0.84838148		7.09849316		0.53356139		-0.00030199		-0.00019782		 0.00036296	
O		15.56131830		1.72060625		4.64663951		 0.00030199		 0.00019782		-0.00036296	
O		9.05323137		6.13015678		4.64663951		-0.00030199		 0.00019782		-0.00036296	
O		7.35646841		2.68894428		0.53356139		 0.00030199		-0.00019782		 0.00036296	
O		15.56131830		2.68894428		2.05654070		 0.00030199		-0.00019782		-0.00036296	
O		0.84838148		6.13015678		3.12366020		-0.00030199		 0.00019782		 0.00036296	
