# total energy = -49431.2836503 eV	

CRYSTAL	
PRIMVEC	
		17.32134985		0.00000000		0.00000000	
		0.00000000		8.81909599		0.00000000	
		0.00000000		0.00000000		5.18019217	
PRIMCOORD
   80 1	
Mg		6.51802395		5.76857418		4.48760666		-0.00037298		-0.00039559		-0.00046400	
Mg		10.80332590		3.05052701		0.69259244		 0.00037298		 0.00039559		 0.00046400	
Mg		2.14265098		3.05052701		1.89750711		 0.00037298		 0.00039559		-0.00046400	
Mg		15.17869714		5.76857418		3.28269372		-0.00037298		-0.00039559		 0.00046400	
Mg		10.80332590		1.35902272		3.28269372		 0.00037298		-0.00039559		 0.00046400	
Mg		6.51802395		7.46007674		1.89750711		-0.00037298		 0.00039559		-0.00046400	
Mg		15.17869714		7.46007674		0.69259244		-0.00037298		 0.00039559		 0.00046400	
Mg		2.14265098		1.35902272		4.48760666		 0.00037298		-0.00039559		-0.00046400	
Mg		6.52841676		4.29666649		1.85917323		 0.00024238		 0.00056897		-0.00041937	
Mg		10.79293309		4.52243470		3.32102587		-0.00024238		-0.00056897		 0.00041937	
Mg		2.13225817		4.52243470		4.44927451		-0.00024238		-0.00056897		-0.00041937	
Mg		15.18909168		4.29666649		0.73092632		 0.00024238		 0.00056897		 0.00041937	
Mg		10.79293309		8.70621622		0.73092632		-0.00024238		 0.00056897		 0.00041937	
Mg		6.52841676		0.11288497		4.44927451		 0.00024238		-0.00056897		-0.00041937	
Mg		15.18909168		0.11288497		3.32102587		 0.00024238		-0.00056897		 0.00041937	
Mg		2.13225817		8.70621622		1.85917323		-0.00024238		 0.00056897		-0.00041937	
Si		4.70274648		3.01436869		0.26211879		-0.00053023		 0.00014489		-0.00039388	
Si		12.61860337		5.80473249		4.91808204		 0.00053023		-0.00014489		 0.00039388	
Si		3.95792844		5.80473249		2.85221834		 0.00053023		-0.00014489		-0.00039388	
Si		13.36342141		3.01436869		2.32798249		-0.00053023		 0.00014489		 0.00039388	
Si		12.61860337		7.42391842		2.32798249		 0.00053023		 0.00014489		 0.00039388	
Si		4.70274648		1.39518277		2.85221834		-0.00053023		-0.00014489		-0.00039388	
Si		13.36342141		1.39518277		4.91808204		-0.00053023		-0.00014489		 0.00039388	
Si		3.95792844		7.42391842		0.26211879		 0.00053023		 0.00014489		-0.00039388	
Si		8.20339129		2.97556367		4.13431867		 0.00030788		 0.00066660		 0.00037831	
Si		9.11795856		5.84353578		1.04588216		-0.00030788		-0.00066660		-0.00037831	
Si		0.45728364		5.84353578		1.54421739		-0.00030788		-0.00066660		 0.00037831	
Si		16.86406621		2.97556367		3.63598171		 0.00030788		 0.00066660		-0.00037831	
Si		9.11795856		7.38511340		3.63598171		-0.00030788		 0.00066660		-0.00037831	
Si		8.20339129		1.43398605		1.54421739		 0.00030788		-0.00066660		 0.00037831	
Si		16.86406621		1.43398605		1.04588216		 0.00030788		-0.00066660		-0.00037831	
Si		0.45728364		7.38511340		4.13431867		-0.00030788		 0.00066660		 0.00037831	
O		3.17846770		3.00466874		0.17612695		-0.00004775		 0.00042589		-0.00045186	
O		14.14288215		5.81443245		5.00407215		 0.00004775		-0.00042589		 0.00045186	
O		5.48220723		5.81443245		2.76622650		 0.00004775		-0.00042589		-0.00045186	
O		11.83914262		3.00466874		2.41397260		-0.00004775		 0.00042589		 0.00045186	
O		14.14288215		7.41421846		2.41397260		 0.00004775		 0.00042589		 0.00045186	
O		3.17846770		1.40488272		2.76622650		-0.00004775		-0.00042589		-0.00045186	
O		11.83914262		1.40488272		5.00407215		-0.00004775		-0.00042589		 0.00045186	
O		5.48220723		7.41421846		0.17612695		 0.00004775		 0.00042589		-0.00045186	
O		5.39386834		4.43512643		0.22274909		-0.00021195		 0.00040485		-0.00055708	
O		11.92748151		4.38397475		4.95745174		 0.00021195		-0.00040485		 0.00055708	
O		3.26680658		4.38397475		2.81284864		 0.00021195		-0.00040485		-0.00055708	
O		14.05454327		4.43512643		2.36735046		-0.00021195		 0.00040485		 0.00055708	
O		11.92748151		0.02557497		2.36735046		 0.00021195		 0.00040485		 0.00055708	
O		5.39386834		8.79352448		2.81284864		-0.00021195		-0.00040485		-0.00055708	
O		14.05454327		8.79352448		4.95745174		-0.00021195		-0.00040485		 0.00055708	
O		3.26680658		0.02557497		0.22274909		 0.00021195		 0.00040485		-0.00055708	
O		5.23970833		1.96136746		4.30992772		-0.00016905		 0.00009738		-0.00036355	
O		12.08164152		6.85773199		0.87027485		 0.00016905		-0.00009738		 0.00036355	
O		3.42096660		6.85773199		1.71982643		 0.00016905		-0.00009738		-0.00036355	
O		13.90038325		1.96136746		3.46037440		-0.00016905		 0.00009738		 0.00036355	
O		12.08164152		6.37091719		3.46037440		 0.00016905		 0.00009738		 0.00036355	
O		5.23970833		2.44818227		1.71982643		-0.00016905		-0.00009738		-0.00036355	
O		13.90038325		2.44818227		0.87027485		-0.00016905		-0.00009738		 0.00036355	
O		3.42096660		6.37091719		4.30992772		 0.00016905		 0.00009738		-0.00036355	
O		9.73806289		3.01084033		4.13380077		-0.00003805		 0.00066078		-0.00042136	
O		7.58328696		5.80825912		1.04640180		 0.00003805		-0.00066078		 0.00042136	
O		16.24396189		5.80825912		1.54369948		 0.00003805		-0.00066078		-0.00042136	
O		1.07738796		3.01084033		3.63650135		-0.00003805		 0.00066078		 0.00042136	
O		7.58328696		7.42039179		3.63650135		 0.00003805		 0.00066078		 0.00042136	
O		9.73806289		1.39870939		1.54369948		-0.00003805		-0.00066078		-0.00042136	
O		1.07738796		1.39870939		1.04640180		-0.00003805		-0.00066078		 0.00042136	
O		16.24396189		7.42039179		4.13380077		 0.00003805		 0.00066078		-0.00042136	
O		7.48975168		4.26491646		3.57433849		 0.00027863		 0.00066044		-0.00008474	
O		9.83159817		4.55418300		1.60586234		-0.00027863		-0.00066044		 0.00008474	
O		1.17092325		4.55418300		0.98423721		-0.00027863		-0.00066044		-0.00008474	
O		16.15042660		4.26491646		4.19596189		 0.00027863		 0.00066044		 0.00008474	
O		9.83159817		8.67446618		4.19596189		-0.00027863		 0.00066044		 0.00008474	
O		7.48975168		0.14463327		0.98423721		 0.00027863		-0.00066044		-0.00008474	
O		16.15042660		0.14463327		1.60586234		 0.00027863		-0.00066044		 0.00008474	
O		1.17092325		8.67446618		3.57433849		-0.00027863		 0.00066044		-0.00008474	
O		7.76516114		1.72060589		3.12366121		-0.00020572		 0.00014107		 0.00048009	
O		9.55618871		7.09849356		2.05653962		 0.00020572		-0.00014107		-0.00048009	
O		0.89551379		7.09849356		0.53356166		 0.00020572		-0.00014107		 0.00048009	
O		16.42583606		1.72060589		4.64663917		-0.00020572		 0.00014107		-0.00048009	
O		9.55618871		6.13015735		4.64663917		 0.00020572		 0.00014107		-0.00048009	
O		7.76516114		2.68894383		0.53356166		-0.00020572		-0.00014107		 0.00048009	
O		16.42583606		2.68894383		2.05653962		-0.00020572		-0.00014107		-0.00048009	
O		0.89551379		6.13015735		3.12366121		 0.00020572		 0.00014107		 0.00048009	
