# total energy = -49432.9337594 eV	

CRYSTAL	
PRIMVEC	
		17.77717462		0.00000000		0.00000000	
		0.00000000		8.81909634		0.00000000	
		0.00000000		0.00000000		5.18019758	
PRIMCOORD
   80 1	
Mg		6.68955081		5.76857406		4.48760774		-0.00018011		-0.00064378		-0.00064876	
Mg		11.08762381		3.05052761		0.69259339		 0.00018011		 0.00064378		 0.00064876	
Mg		2.19903650		3.05052761		1.89750718		 0.00018011		 0.00064378		-0.00064876	
Mg		15.57813812		5.76857406		3.28269218		-0.00018011		-0.00064378		 0.00064876	
Mg		11.08762381		1.35902233		3.28269218		 0.00018011		-0.00064378		 0.00064876	
Mg		6.68955081		7.46007756		1.89750718		-0.00018011		 0.00064378		-0.00064876	
Mg		15.57813812		7.46007756		0.69259339		-0.00018011		 0.00064378		 0.00064876	
Mg		2.19903650		1.35902233		4.48760774		 0.00018011		-0.00064378		-0.00064876	
Mg		6.70021712		4.29666666		1.85917425		 0.00033796		 0.00011439		-0.00043346	
Mg		11.07695751		4.52243323		3.32102510		-0.00033796		-0.00011439		 0.00043346	
Mg		2.18837020		4.52243323		4.44927304		-0.00033796		-0.00011439		-0.00043346	
Mg		15.58880443		4.29666666		0.73092631		 0.00033796		 0.00011439		 0.00043346	
Mg		11.07695751		8.70621661		0.73092631		-0.00033796		 0.00011439		 0.00043346	
Mg		6.70021712		0.11288506		4.44927304		 0.00033796		-0.00011439		-0.00043346	
Mg		15.58880443		0.11288506		3.32102510		 0.00033796		-0.00011439		 0.00043346	
Mg		2.18837020		8.70621661		1.85917425		-0.00033796		 0.00011439		-0.00043346	
Si		4.82650291		3.01436884		0.26211733		-0.00060192		 0.00054858		-0.00028357	
Si		12.95067171		5.80473105		4.91808203		 0.00060192		-0.00054858		 0.00028357	
Si		4.06208440		5.80473105		2.85221789		 0.00060192		-0.00054858		-0.00028357	
Si		13.71509022		3.01436884		2.32798146		-0.00060192		 0.00054858		 0.00028357	
Si		12.95067171		7.42391701		2.32798146		 0.00060192		 0.00054858		 0.00028357	
Si		4.82650291		1.39518111		2.85221789		-0.00060192		-0.00054858		-0.00028357	
Si		13.71509022		1.39518111		4.91808203		-0.00060192		-0.00054858		 0.00028357	
Si		4.06208440		7.42391701		0.26211733		 0.00060192		 0.00054858		-0.00028357	
Si		8.41926990		2.97556482		4.13431840		 0.00060305		 0.00073554		 0.00028391	
Si		9.35790294		5.84353507		1.04588274		-0.00060305		-0.00073554		-0.00028391	
Si		0.46931741		5.84353507		1.54421783		-0.00060305		-0.00073554		 0.00028391	
Si		17.30785721		2.97556482		3.63598153		 0.00060305		 0.00073554		-0.00028391	
Si		9.35790294		7.38511299		3.63598153		-0.00060305		 0.00073554		-0.00028391	
Si		8.41926990		1.43398512		1.54421783		 0.00060305		-0.00073554		 0.00028391	
Si		17.30785721		1.43398512		1.04588274		 0.00060305		-0.00073554		-0.00028391	
Si		0.46931741		7.38511299		4.13431840		-0.00060305		 0.00073554		 0.00028391	
O		3.26211154		3.00466783		0.17612736		 0.00000460		 0.00032304		-0.00018283	
O		14.51506308		5.81443206		5.00407377		-0.00000460		-0.00032304		 0.00018283	
O		5.62647577		5.81443206		2.76622615		-0.00000460		-0.00032304		-0.00018283	
O		12.15069886		3.00466783		2.41397321		 0.00000460		 0.00032304		 0.00018283	
O		14.51506308		7.41421778		2.41397321		-0.00000460		 0.00032304		 0.00018283	
O		3.26211154		1.40488211		2.76622615		 0.00000460		-0.00032304		-0.00018283	
O		12.15069886		1.40488211		5.00407377		 0.00000460		-0.00032304		 0.00018283	
O		5.62647577		7.41421778		0.17612736		-0.00000460		 0.00032304		-0.00018283	
O		5.53581218		4.43512597		0.22274978		-0.00021753		 0.00058044		-0.00051517	
O		12.24136245		4.38397570		4.95745136		 0.00021753		-0.00058044		 0.00051517	
O		3.35277513		4.38397570		2.81284856		 0.00021753		-0.00058044		-0.00051517	
O		14.42439949		4.43512597		2.36735079		-0.00021753		 0.00058044		 0.00051517	
O		12.24136245		0.02557424		2.36735079		 0.00021753		 0.00058044		 0.00051517	
O		5.53581218		8.79352565		2.81284856		-0.00021753		-0.00058044		-0.00051517	
O		14.42439949		8.79352565		4.95745136		-0.00021753		-0.00058044		 0.00051517	
O		3.35277513		0.02557424		0.22274978		 0.00021753		 0.00058044		-0.00051517	
O		5.37759532		1.96136812		4.30992666		 0.00008859		 0.00008823		-0.00022069	
O		12.39957930		6.85773177		0.87027447		-0.00008859		-0.00008823		 0.00022069	
O		3.51099199		6.85773177		1.71982609		-0.00008859		-0.00008823		-0.00022069	
O		14.26618264		1.96136812		3.46037326		 0.00008859		 0.00008823		 0.00022069	
O		12.39957930		6.37091807		3.46037326		-0.00008859		 0.00008823		 0.00022069	
O		5.37759532		2.44818183		1.71982609		 0.00008859		-0.00008823		-0.00022069	
O		14.26618264		2.44818183		0.87027447		 0.00008859		-0.00008823		 0.00022069	
O		3.51099199		6.37091807		4.30992666		-0.00008859		 0.00008823		-0.00022069	
O		9.99432757		3.01084007		4.13379930		-0.00006321		 0.00052186		-0.00058305	
O		7.78284705		5.80825805		1.04640183		 0.00006321		-0.00052186		 0.00058305	
O		16.67143436		5.80825805		1.54370051		 0.00006321		-0.00052186		-0.00058305	
O		1.10574026		3.01084007		3.63650062		-0.00006321		 0.00052186		 0.00058305	
O		7.78284705		7.42039001		3.63650062		 0.00006321		 0.00052186		 0.00058305	
O		9.99432757		1.39870810		1.54370051		-0.00006321		-0.00052186		-0.00058305	
O		1.10574026		1.39870810		1.04640183		-0.00006321		-0.00052186		 0.00058305	
O		16.67143436		7.42039001		4.13379930		 0.00006321		 0.00052186		-0.00058305	
O		7.68685031		4.26491663		3.57433739		 0.00019777		 0.00055223		-0.00009711	
O		10.09032432		4.55418326		1.60586196		-0.00019777		-0.00055223		 0.00009711	
O		1.20173700		4.55418326		0.98423861		-0.00019777		-0.00055223		-0.00009711	
O		16.57543762		4.26491663		4.19596253		 0.00019777		 0.00055223		 0.00009711	
O		10.09032432		8.67446658		4.19596253		-0.00019777		 0.00055223		 0.00009711	
O		7.68685031		0.14463332		0.98423861		 0.00019777		-0.00055223		-0.00009711	
O		16.57543762		0.14463332		1.60586196		 0.00019777		-0.00055223		 0.00009711	
O		1.20173700		8.67446658		3.57433739		-0.00019777		 0.00055223		-0.00009711	
O		7.96950738		1.72060651		3.12366113		-0.00040352		 0.00017647		 0.00033355	
O		9.80766724		7.09849338		2.05654000		 0.00040352		-0.00017647		-0.00033355	
O		0.91907993		7.09849338		0.53356056		 0.00040352		-0.00017647		 0.00033355	
O		16.85809470		1.72060651		4.64664057		-0.00040352		 0.00017647		-0.00033355	
O		9.80766724		6.13015646		4.64664057		 0.00040352		 0.00017647		-0.00033355	
O		7.96950738		2.68894343		0.53356056		-0.00040352		-0.00017647		 0.00033355	
O		16.85809470		2.68894343		2.05654000		-0.00040352		-0.00017647		-0.00033355	
O		0.91907993		6.13015646		3.12366113		 0.00040352		 0.00017647		 0.00033355	
