# total energy = -49444.6214091 eV

CRYSTAL
PRIMVEC
		14.02399962		0.00000000		0.00000000
		0.00000000		5.10899916		0.00000000
		0.00000000		0.00000000		9.60629950
PRIMECORD
   70 1
Mg		2.42755433		1.67524108		0.05091273		-0.00004130		-0.00041907		-0.00001674
Mg		11.59644529		3.43375948		0.05091273		 0.00004130		 0.00041907		-0.00001674
Mg		9.43955414		0.87925850		4.85406248		-0.00004130		 0.00041907		-0.00001674
Mg		4.58444548		4.22974066		4.85406248		 0.00004130		-0.00041907		-0.00001674
Mg		2.48925993		4.27010173		1.68302440		-0.00070109		 0.00038294		 0.00011458
Mg		11.53473969		0.83889743		1.68302440		 0.00070109		-0.00038294		 0.00011458
Mg		9.50125974		3.39339841		6.48617275		-0.00070109		-0.00038294		 0.00011458
Mg		4.52273988		1.71560215		6.48617275		 0.00070109		 0.00038294		 0.00011458
Mg		4.54377588		1.76822441		3.11436148		 0.00032109		 0.00030440		-0.00004393
Mg		9.48022374		3.34077475		3.11436148		-0.00032109		-0.00030440		-0.00004393
Mg		11.55577569		0.78627517		7.91751264		 0.00032109		-0.00030440		-0.00004393
Mg		2.46822393		4.32272539		7.91751264		-0.00032109		 0.00030440		-0.00004393
Mg		0.00000000		2.55449958		7.95977957		0.00000000		0.00000000		 0.00028008
Mg		7.01199981		0.00000000		3.15662982		0.00000000		0.00000000		 0.00028008
Mg		0.00000000		2.55449958		1.79637759		0.00000000		0.00000000		-0.00012674
Mg		7.01199981		0.00000000		6.59952734		0.00000000		0.00000000		-0.00012674
Mg		0.00000000		0.00000000		6.36417377		0.00000000		0.00000000		 0.00037930
Mg		7.01199981		2.55449958		1.56102402		0.00000000		0.00000000		 0.00037930
Mg		0.00000000		0.00000000		3.31897725		0.00000000		0.00000000		 0.00074282
Mg		7.01199981		2.55449958		8.12212560		0.00000000		0.00000000		 0.00074282
Si		0.00000000		0.00000000		0.07396959		0.00000000		0.00000000		 0.00021192
Si		7.01199981		2.55449958		4.87711934		0.00000000		0.00000000		 0.00021192
Si		5.28143826		0.07203708		0.04899144		 0.00007621		-0.00001531		 0.00008299
Si		8.74256136		5.03696348		0.04899144		-0.00007621		 0.00001531		 0.00008299
Si		12.29343807		2.48246250		4.85214119		 0.00007621		 0.00001531		 0.00008299
Si		1.73056155		2.62653666		4.85214119		-0.00007621		-0.00001531		 0.00008299
O		5.82416704		3.62125895		9.54481969		 0.00005719		-0.00012040		-0.00003178
O		8.19983258		1.48774161		9.54481969		-0.00005719		 0.00012040		-0.00003178
O		12.83616825		4.04224119		4.74166994		 0.00005719		 0.00012040		-0.00003178
O		1.18783277		1.06675937		4.74166994		-0.00005719		-0.00012040		-0.00003178
O		1.09807917		3.54104728		0.04803080		-0.00003555		 0.00011970		-0.00026520
O		12.92592045		1.56795188		0.04803080		 0.00003555		-0.00011970		-0.00026520
O		8.11007898		4.12245145		4.85118055		-0.00003555		-0.00011970		-0.00026520
O		5.91392064		0.98654770		4.85118055		 0.00003555		 0.00011970		-0.00026520
O		3.49898791		0.11239815		3.31513327		-0.00051403		 0.00002274		 0.00034143
O		10.52501171		4.99660241		3.31513327		 0.00051403		-0.00002274		 0.00034143
O		10.51098912		2.44210143		8.11828442		-0.00051403		-0.00002274		 0.00034143
O		3.51301190		2.66689773		8.11828442		 0.00051403		 0.00002274		 0.00034143
O		3.57892470		2.61580830		1.55622080		-0.00013705		 0.00010891		-0.00027204
O		10.44507492		2.49319226		1.55622080		 0.00013705		-0.00010891		-0.00027204
O		10.59092451		5.04769184		6.35936915		-0.00013705		-0.00010891		-0.00027204
O		3.43307511		0.06130732		6.35936915		 0.00013705		 0.00010891		-0.00027204
O		1.06582397		0.73569622		1.47072349		 0.00000120		-0.00009295		-0.00001088
O		12.95817705		4.37330434		1.47072349		-0.00000120		 0.00009295		-0.00001088
O		8.07782378		1.81880336		6.27387464		 0.00000120		 0.00009295		-0.00001088
O		5.94617584		3.29019579		6.27387464		-0.00000120		-0.00009295		-0.00001088
O		6.02751504		3.30552262		3.47652006		-0.00018010		 0.00013912		-0.00016107
O		7.99648318		1.80347653		3.47652006		 0.00018010		-0.00013912		-0.00016107
O		13.03951625		4.35797752		8.27966981		-0.00018010		-0.00013912		-0.00016107
O		0.98448477		0.75102304		8.27966981		 0.00018010		 0.00013912		-0.00016107
O		5.81294784		0.78167670		1.53604728		 0.00017832		 0.00008592		 0.00025666
O		8.21105178		4.32732245		1.53604728		-0.00017832		-0.00008592		 0.00025666
O		12.82494765		1.77282288		6.33919703		 0.00017832		-0.00008592		 0.00025666
O		1.19905197		3.33617628		6.33919703		-0.00017832		 0.00008592		 0.00025666
O		1.24673357		3.49966526		3.34203130		-0.00002956		 0.00021879		-0.00021441
O		12.77726605		1.60933530		3.34203130		 0.00002956		-0.00021879		-0.00021441
O		8.25873338		4.16383487		8.14518245		-0.00002956		-0.00021879		-0.00021441
O		5.76526624		0.94516428		8.14518245		 0.00002956		 0.00021879		-0.00021441
O		3.64343510		0.02452237		0.06724368		-0.00000022		-0.00014611		-0.00007119
O		10.38056592		5.08447679		0.06724368		 0.00000022		 0.00014611		-0.00007119
O		10.65543491		2.52997721		4.87039343		-0.00000022		 0.00014611		-0.00007119
O		3.36856471		2.57902335		4.87039343		 0.00000022		-0.00014611		-0.00007119
H		4.20719989		3.06539949		0.96062995		-0.00013335		-0.00018072		-0.00000312
H		9.81679973		2.04359966		0.96062995		 0.00013335		 0.00018072		-0.00000312
H		11.21919970		4.59809924		5.76377970		-0.00013335		 0.00018072		-0.00000312
H		2.80479992		0.51089992		5.76377970		 0.00013335		-0.00018072		-0.00000312
H		3.78647990		0.91961957		4.32283477		 0.00001621		-0.00012093		-0.00044900
H		10.23751972		4.18937959		4.32283477		-0.00001621		 0.00012093		-0.00044900
H		10.79847971		1.63488001		9.12598452		 0.00001621		 0.00012093		-0.00044900
H		3.22551991		3.47412055		9.12598452		-0.00001621		-0.00012093		-0.00044900
