# total energy = -18389.5176465 eV	

CRYSTAL	
PRIMVEC	
		11.10979961		0.00000000		0.00000000	
		0.00000000		6.38940129		0.00000000	
		0.00000000		0.00000000		4.46599502	
PRIMCOORD
   28 1	
Mg		0.00000000		0.00000000		0.00000000		0.00000000		0.00000000		0.00000000	
Mg		5.55489981		0.00000000		2.23299640		0.00000000		-0.00000000		0.00000000	
Mg		0.00000000		3.19469954		0.00000000		0.00000000		0.00000000		0.00000000	
Mg		5.55489981		3.19469954		2.23299640		0.00000000		0.00000000		0.00000000	
Ca		3.07563692		1.59735032		4.36528468		-0.00058872		0.00000000		 0.00025399	
Ca		8.03416380		4.79204986		0.10070811		 0.00058872		0.00000000		-0.00025399	
Ca		2.47926288		4.79204986		2.13228829		 0.00058872		0.00000000		 0.00025399	
Ca		8.63053673		1.59735032		2.33370340		-0.00058872		0.00000000		-0.00025399	
Si		0.90611526		1.59735032		1.83543444		-0.00050244		0.00000000		-0.00033416	
Si		10.20368436		4.79204986		2.63055835		 0.00050244		0.00000000		 0.00033416	
Si		4.64878455		4.79204986		4.06842973		 0.00050244		0.00000000		-0.00033416	
Si		6.46101617		1.59735032		0.39756307		-0.00050244		0.00000000		 0.00033416	
O		0.86289814		1.59735032		3.33029131		-0.00057458		0.00000000		 0.00081586	
O		10.24690148		4.79204986		1.13570149		 0.00057458		0.00000000		-0.00081586	
O		4.69200167		4.79204986		1.09729380		 0.00057458		0.00000000		 0.00081586	
O		6.41779794		1.59735032		3.36869788		-0.00057458		0.00000000		-0.00081586	
O		4.98841224		1.59735032		1.09863364		 0.00008136		0.00000000		 0.00052977	
O		6.12138849		4.79204986		3.36735915		-0.00008136		0.00000000		-0.00052977	
O		0.56648868		4.79204986		3.33163115		-0.00008136		0.00000000		 0.00052977	
O		10.54331204		1.59735032		1.13436165		 0.00008136		0.00000000		-0.00052977	
O		1.63902874		0.29199553		1.22055591		-0.00030324		 0.00022580		-0.00001671	
O		9.47077088		6.09740354		3.24543688		 0.00030324		-0.00022580		 0.00001671	
O		3.91587107		6.09740354		3.45355231		 0.00030324		-0.00022580		-0.00001671	
O		7.19392854		0.29199553		1.01244048		-0.00030324		 0.00022580		 0.00001671	
O		9.47077088		3.48669618		3.24543688		 0.00030324		 0.00022580		 0.00001671	
O		1.63902874		2.90270401		1.22055591		-0.00030324		-0.00022580		-0.00001671	
O		7.19392854		2.90270401		1.01244048		-0.00030324		-0.00022580		 0.00001671	
O		3.91587107		3.48669618		3.45355231		 0.00030324		 0.00022580		-0.00001671	
