# total energy = -18390.1070092 eV	

CRYSTAL	
PRIMVEC	
		11.10979961		0.00000000		0.00000000	
		0.00000000		6.38940129		0.00000000	
		0.00000000		0.00000000		5.19020952	
PRIMCOORD
   28 1	
Mg		0.00000000		0.00000000		0.00000000		0.00000000		0.00000000		-0.00000000	
Mg		5.55489981		0.00000000		2.59510365		0.00000000		0.00000000		0.00000000	
Mg		0.00000000		3.19469954		0.00000000		0.00000000		0.00000000		0.00000000	
Mg		5.55489981		3.19469954		2.59510365		0.00000000		0.00000000		0.00000000	
Ca		3.07563692		1.59735032		5.07316890		-0.00031026		0.00000000		-0.00032855	
Ca		8.03416380		4.79204986		0.11703952		 0.00031026		0.00000000		 0.00032855	
Ca		2.47926288		4.79204986		2.47806525		 0.00031026		0.00000000		-0.00032855	
Ca		8.63053673		1.59735032		2.71214317		-0.00031026		-0.00000000		 0.00032855	
Si		0.90611526		1.59735032		2.13307042		-0.00037190		0.00000000		 0.00057856	
Si		10.20368436		4.79204986		3.05713578		 0.00037190		0.00000000		-0.00057856	
Si		4.64878455		4.79204986		4.72817518		 0.00037190		0.00000000		 0.00057856	
Si		6.46101617		1.59735032		0.46203212		-0.00037190		0.00000000		-0.00057856	
O		0.86289814		1.59735032		3.87033756		 0.00053622		0.00000000		-0.00022288	
O		10.24690148		4.79204986		1.31986975		-0.00053622		0.00000000		 0.00022288	
O		4.69200167		4.79204986		1.27523390		-0.00053622		0.00000000		-0.00022288	
O		6.41779794		1.59735032		3.91497340		 0.00053622		0.00000000		 0.00022288	
O		4.98841224		1.59735032		1.27679150		 0.00041926		0.00000000		 0.00013683	
O		6.12138849		4.79204986		3.91341691		-0.00041926		0.00000000		-0.00013683	
O		0.56648868		4.79204986		3.87189515		-0.00041926		0.00000000		 0.00013683	
O		10.54331204		1.59735032		1.31831326		 0.00041926		-0.00000000		-0.00013683	
O		1.63902874		0.29199553		1.41848366		-0.00036546		 0.00083936		-0.00022482	
O		9.47077088		6.09740354		3.77172364		 0.00036546		-0.00083936		 0.00022482	
O		3.91587107		6.09740354		4.01358731		 0.00036546		-0.00083936		-0.00022482	
O		7.19392854		0.29199553		1.17661999		-0.00036546		 0.00083936		 0.00022482	
O		9.47077088		3.48669618		3.77172364		 0.00036546		 0.00083936		 0.00022482	
O		1.63902874		2.90270401		1.41848366		-0.00036546		-0.00083936		-0.00022482	
O		7.19392854		2.90270401		1.17661999		-0.00036546		-0.00083936		 0.00022482	
O		3.91587107		3.48669618		4.01358731		 0.00036546		 0.00083936		-0.00022482	
