
     Program PWSCF v.6.6 starts on  4Feb2024 at 13:34:50 

     This program is part of the open-source Quantum ESPRESSO suite
     for quantum simulation of materials; please cite
         "P. Giannozzi et al., J. Phys.:Condens. Matter 21 395502 (2009);
         "P. Giannozzi et al., J. Phys.:Condens. Matter 29 465901 (2017);
          URL http://www.quantum-espresso.org", 
     in publications or presentations arising from this work. More details at
     http://www.quantum-espresso.org/quote

     Parallel version (MPI & OpenMP), running on      16 processor cores
     Number of MPI processes:                16
     Threads/MPI process:                     1

     MPI processes distributed on     2 nodes
     R & G space division:  proc/nbgrp/npool/nimage =      16
     Fft bands division:     nmany     =       1
     Waiting for input...
     Reading input from standard input

     Current dimensions of program PWSCF are:
     Max number of different atomic species (ntypx) = 10
     Max number of k-points (npk) =  40000
     Max angular momentum in pseudopotentials (lmaxx) =  3

     IMPORTANT: XC functional enforced from input :
     Exchange-correlation= PBE
                           (   1   4   3   4   0   0   0)
     Any further DFT definition will be discarded
     Please, verify this is what you really want


     --------------------------------------------
     Parameters for DFT-D3 Dispersion Correction:
     --------------------------------------------
       Reference C6 values for interpolation: 

         atom   Coordination number   C6
         O          0.000            31.01
         O          0.993            25.63
         O          1.989            20.74
         Mg         0.000          1366.75
         Mg         0.963           902.54
         Mg         1.950           351.12

       Values used:

         atom   Coordination number  R0_AB[au]  C6      C8
         Mg        16.582            3.292    351.12  31436.69
         Mg        16.582            3.292    351.12  31436.69
         Mg        16.582            3.292    351.12  31436.69
         Mg        16.582            3.292    351.12  31436.69
         O          5.817            2.345     20.74    418.58
         O          5.817            2.345     20.74    418.58
         O          5.817            2.345     20.74    418.58
         O          5.817            2.345     20.74    418.58

         Molecular C6 ( Ry / a.u.^6 ) =      8251.69


     Subspace diagonalization in iterative solution of the eigenvalue problem:
     a serial algorithm will be used

     Found symmetry operation: I + (  0.0000 -0.5000 -0.5000)
     This is a supercell, fractional translations are disabled
 
     Parallelization info
     --------------------
     sticks:   dense  smooth     PW     G-vecs:    dense   smooth      PW
     Min         126     126     35                 4252     4252     619
     Max         127     127     36                 4255     4255     623
     Sum        2025    2025    561                68051    68051    9939
 


     bravais-lattice index     =            0
     lattice parameter (alat)  =       7.9576  a.u.
     unit-cell volume          =     503.9092 (a.u.)^3
     number of atoms/cell      =            8
     number of atomic types    =            2
     number of electrons       =        64.00
     number of Kohn-Sham states=           38
     kinetic-energy cutoff     =     100.0000  Ry
     charge density cutoff     =     400.0000  Ry
     convergence threshold     =      1.0E-06
     mixing beta               =       0.5000
     number of iterations used =            8  plain     mixing
     Exchange-correlation= PBE
                           (   1   4   3   4   0   0   0)
     nstep                     =          100


     celldm(1)=   7.957637  celldm(2)=   0.000000  celldm(3)=   0.000000
     celldm(4)=   0.000000  celldm(5)=   0.000000  celldm(6)=   0.000000

     crystal axes: (cart. coord. in units of alat)
               a(1) = (   1.000000   0.000000   0.000000 )  
               a(2) = (   0.000000   1.000000   0.000000 )  
               a(3) = (   0.000000   0.000000   1.000000 )  

     reciprocal axes: (cart. coord. in units 2 pi/alat)
               b(1) = (  1.000000  0.000000  0.000000 )  
               b(2) = (  0.000000  1.000000  0.000000 )  
               b(3) = (  0.000000  0.000000  1.000000 )  


     PseudoPot. # 1 for Mg read from file:
     ./Mg.upf
     MD5 check sum: 4c04d8c6e0476e83eaecaf72fa8acc4d
     Pseudo is Norm-conserving, Zval = 10.0
     Generated using ONCVPSP code by D. R. Hamann
     Using radial grid of 1510 points,  4 beta functions with: 
                l(1) =   0
                l(2) =   0
                l(3) =   1
                l(4) =   1

     PseudoPot. # 2 for O  read from file:
     ./O.upf
     MD5 check sum: 3e3f909f7470e8921608ab6b1f57bbae
     Pseudo is Norm-conserving + core correction, Zval =  6.0
     Generated using ONCVPSP code by D. R. Hamann
     Using radial grid of  936 points,  5 beta functions with: 
                l(1) =   0
                l(2) =   0
                l(3) =   1
                l(4) =   1
                l(5) =   2

     atomic species   valence    mass     pseudopotential
        Mg            10.00    24.30500     Mg( 1.00)
        O              6.00    15.99900     O ( 1.00)

     No symmetry found



   Cartesian axes

     site n.     atom                  positions (alat units)
         1           Mg  tau(   1) = (   0.0000000   0.0000000   0.0000000  )
         2           Mg  tau(   2) = (   0.0000000   0.5000000   0.5000000  )
         3           Mg  tau(   3) = (   0.5000000   0.0000000   0.5000000  )
         4           Mg  tau(   4) = (   0.5000000   0.5000000   0.0000000  )
         5           O   tau(   5) = (   0.5000000   0.5000000   0.5000000  )
         6           O   tau(   6) = (   0.5000000   0.0000000   0.0000000  )
         7           O   tau(   7) = (   0.0000000   0.5000000   0.0000000  )
         8           O   tau(   8) = (   0.0000000   0.0000000   0.5000000  )

     number of k points=    63  Gaussian smearing, width (Ry)=  0.0050
                       cart. coord. in units 2pi/alat
        k(    1) = (   0.0000000   0.0000000   0.0000000), wk =   0.0160000
        k(    2) = (   0.0000000   0.0000000   0.2000000), wk =   0.0320000
        k(    3) = (   0.0000000   0.0000000   0.4000000), wk =   0.0320000
        k(    4) = (   0.0000000   0.2000000   0.0000000), wk =   0.0320000
        k(    5) = (   0.0000000   0.2000000   0.2000000), wk =   0.0320000
        k(    6) = (   0.0000000   0.2000000   0.4000000), wk =   0.0320000
        k(    7) = (   0.0000000   0.2000000  -0.4000000), wk =   0.0320000
        k(    8) = (   0.0000000   0.2000000  -0.2000000), wk =   0.0320000
        k(    9) = (   0.0000000   0.4000000   0.0000000), wk =   0.0320000
        k(   10) = (   0.0000000   0.4000000   0.2000000), wk =   0.0320000
        k(   11) = (   0.0000000   0.4000000   0.4000000), wk =   0.0320000
        k(   12) = (   0.0000000   0.4000000  -0.4000000), wk =   0.0320000
        k(   13) = (   0.0000000   0.4000000  -0.2000000), wk =   0.0320000
        k(   14) = (   0.2000000   0.0000000   0.0000000), wk =   0.0320000
        k(   15) = (   0.2000000   0.0000000   0.2000000), wk =   0.0320000
        k(   16) = (   0.2000000   0.0000000   0.4000000), wk =   0.0320000
        k(   17) = (   0.2000000   0.0000000  -0.4000000), wk =   0.0320000
        k(   18) = (   0.2000000   0.0000000  -0.2000000), wk =   0.0320000
        k(   19) = (   0.2000000   0.2000000   0.0000000), wk =   0.0320000
        k(   20) = (   0.2000000   0.2000000   0.2000000), wk =   0.0320000
        k(   21) = (   0.2000000   0.2000000   0.4000000), wk =   0.0320000
        k(   22) = (   0.2000000   0.2000000  -0.4000000), wk =   0.0320000
        k(   23) = (   0.2000000   0.2000000  -0.2000000), wk =   0.0320000
        k(   24) = (   0.2000000   0.4000000   0.0000000), wk =   0.0320000
        k(   25) = (   0.2000000   0.4000000   0.2000000), wk =   0.0320000
        k(   26) = (   0.2000000   0.4000000   0.4000000), wk =   0.0320000
        k(   27) = (   0.2000000   0.4000000  -0.4000000), wk =   0.0320000
        k(   28) = (   0.2000000   0.4000000  -0.2000000), wk =   0.0320000
        k(   29) = (   0.2000000  -0.4000000   0.0000000), wk =   0.0320000
        k(   30) = (   0.2000000  -0.4000000   0.2000000), wk =   0.0320000
        k(   31) = (   0.2000000  -0.4000000   0.4000000), wk =   0.0320000
        k(   32) = (   0.2000000  -0.4000000  -0.4000000), wk =   0.0320000
        k(   33) = (   0.2000000  -0.4000000  -0.2000000), wk =   0.0320000
        k(   34) = (   0.2000000  -0.2000000   0.0000000), wk =   0.0320000
        k(   35) = (   0.2000000  -0.2000000   0.2000000), wk =   0.0320000
        k(   36) = (   0.2000000  -0.2000000   0.4000000), wk =   0.0320000
        k(   37) = (   0.2000000  -0.2000000  -0.4000000), wk =   0.0320000
        k(   38) = (   0.2000000  -0.2000000  -0.2000000), wk =   0.0320000
        k(   39) = (   0.4000000   0.0000000   0.0000000), wk =   0.0320000
        k(   40) = (   0.4000000   0.0000000   0.2000000), wk =   0.0320000
        k(   41) = (   0.4000000   0.0000000   0.4000000), wk =   0.0320000
        k(   42) = (   0.4000000   0.0000000  -0.4000000), wk =   0.0320000
        k(   43) = (   0.4000000   0.0000000  -0.2000000), wk =   0.0320000
        k(   44) = (   0.4000000   0.2000000   0.0000000), wk =   0.0320000
        k(   45) = (   0.4000000   0.2000000   0.2000000), wk =   0.0320000
        k(   46) = (   0.4000000   0.2000000   0.4000000), wk =   0.0320000
        k(   47) = (   0.4000000   0.2000000  -0.4000000), wk =   0.0320000
        k(   48) = (   0.4000000   0.2000000  -0.2000000), wk =   0.0320000
        k(   49) = (   0.4000000   0.4000000   0.0000000), wk =   0.0320000
        k(   50) = (   0.4000000   0.4000000   0.2000000), wk =   0.0320000
        k(   51) = (   0.4000000   0.4000000   0.4000000), wk =   0.0320000
        k(   52) = (   0.4000000   0.4000000  -0.4000000), wk =   0.0320000
        k(   53) = (   0.4000000   0.4000000  -0.2000000), wk =   0.0320000
        k(   54) = (   0.4000000  -0.4000000   0.0000000), wk =   0.0320000
        k(   55) = (   0.4000000  -0.4000000   0.2000000), wk =   0.0320000
        k(   56) = (   0.4000000  -0.4000000   0.4000000), wk =   0.0320000
        k(   57) = (   0.4000000  -0.4000000  -0.4000000), wk =   0.0320000
        k(   58) = (   0.4000000  -0.4000000  -0.2000000), wk =   0.0320000
        k(   59) = (   0.4000000  -0.2000000   0.0000000), wk =   0.0320000
        k(   60) = (   0.4000000  -0.2000000   0.2000000), wk =   0.0320000
        k(   61) = (   0.4000000  -0.2000000   0.4000000), wk =   0.0320000
        k(   62) = (   0.4000000  -0.2000000  -0.4000000), wk =   0.0320000
        k(   63) = (   0.4000000  -0.2000000  -0.2000000), wk =   0.0320000

     Dense  grid:    68051 G-vectors     FFT dimensions: (  54,  54,  54)

     Estimated max dynamical RAM per process >      29.22 MB

     Estimated total dynamical RAM >     467.47 MB

     Initial potential from superposition of free atoms

     starting charge   63.99678, renormalised to   64.00000
     Starting wfcs are   36 randomized atomic wfcs +    2 random wfcs

     total cpu time spent up to now is        2.0 secs

     Self-consistent Calculation

     iteration #  1     ecut=   100.00 Ry     beta= 0.50
     Davidson diagonalization with overlap
     ethr =  1.00E-02,  avg # of iterations =  4.0

     total cpu time spent up to now is       10.9 secs

     total energy              =    -608.03223956 Ry
     estimated scf accuracy    <       1.57336964 Ry

     iteration #  2     ecut=   100.00 Ry     beta= 0.50
     Davidson diagonalization with overlap
     ethr =  2.46E-03,  avg # of iterations =  2.2

     total cpu time spent up to now is       15.8 secs

     total energy              =    -608.48016584 Ry
     estimated scf accuracy    <       0.24132896 Ry

     iteration #  3     ecut=   100.00 Ry     beta= 0.50
     Davidson diagonalization with overlap
     ethr =  3.77E-04,  avg # of iterations =  2.2

     total cpu time spent up to now is       20.7 secs

     total energy              =    -608.51529458 Ry
     estimated scf accuracy    <       0.01286812 Ry

     iteration #  4     ecut=   100.00 Ry     beta= 0.50
     Davidson diagonalization with overlap
     ethr =  2.01E-05,  avg # of iterations =  4.1

     total cpu time spent up to now is       26.2 secs

     total energy              =    -608.51591804 Ry
     estimated scf accuracy    <       0.00171225 Ry

     iteration #  5     ecut=   100.00 Ry     beta= 0.50
     Davidson diagonalization with overlap
     ethr =  2.68E-06,  avg # of iterations =  3.9

     total cpu time spent up to now is       31.6 secs

     total energy              =    -608.51631878 Ry
     estimated scf accuracy    <       0.00005206 Ry

     iteration #  6     ecut=   100.00 Ry     beta= 0.50
     Davidson diagonalization with overlap
     ethr =  8.13E-08,  avg # of iterations =  2.1

     total cpu time spent up to now is       36.4 secs

     total energy              =    -608.51633117 Ry
     estimated scf accuracy    <       0.00000150 Ry

     iteration #  7     ecut=   100.00 Ry     beta= 0.50
     Davidson diagonalization with overlap
     ethr =  2.35E-09,  avg # of iterations =  2.9

     total cpu time spent up to now is       41.4 secs

     total energy              =    -608.51633010 Ry
     estimated scf accuracy    <       0.00000321 Ry

     iteration #  8     ecut=   100.00 Ry     beta= 0.50
     Davidson diagonalization with overlap
     ethr =  2.35E-09,  avg # of iterations =  2.5

     total cpu time spent up to now is       46.3 secs

     End of self-consistent calculation

          k = 0.0000 0.0000 0.0000 (  8409 PWs)   bands (ev):

   -64.2904 -64.2789 -64.2789 -64.2789 -31.1156 -31.1156 -31.1156 -31.0716
   -31.0716 -31.0716 -31.0716 -31.0716 -31.0716 -31.0431 -31.0431 -31.0431
    -9.1286  -7.5854  -7.5854  -7.5853   4.0215   4.0215   4.0215   6.7284
     6.7284   6.7284   6.7284   6.7284   6.7285   8.0632   8.0632   8.0632
    12.8379  17.2907  17.2907  18.0836  18.0836  18.0836

          k = 0.0000 0.0000 0.2000 (  8501 PWs)   bands (ev):

   -64.2893 -64.2800 -64.2789 -64.2789 -31.1114 -31.1114 -31.1095 -31.0758
   -31.0758 -31.0723 -31.0723 -31.0689 -31.0689 -31.0508 -31.0458 -31.0458
    -8.9846  -7.7348  -7.5636  -7.5636   4.2128   4.2128   4.2479   6.3644
     6.3644   6.5784   6.5784   6.8368   6.8368   7.3531   7.9122   7.9122
    13.6615  17.6208  17.8675  17.8675  17.9372  18.6672

          k = 0.0000 0.0000 0.4000 (  8542 PWs)   bands (ev):

   -64.2864 -64.2829 -64.2789 -64.2789 -31.1003 -31.1003 -31.0927 -31.0868
   -31.0868 -31.0735 -31.0735 -31.0703 -31.0617 -31.0617 -31.0529 -31.0529
    -8.6035  -8.1253  -7.5280  -7.5280   4.7601   4.7601   4.9403   5.5608
     5.5608   6.0583   6.3469   6.3469   7.1366   7.1366   7.5447   7.5447
    15.3077  16.9480  18.6064  19.1278  19.1278  19.9457

          k = 0.0000 0.2000 0.0000 (  8501 PWs)   bands (ev):

   -64.2893 -64.2800 -64.2789 -64.2789 -31.1114 -31.1114 -31.1095 -31.0758
   -31.0758 -31.0723 -31.0723 -31.0689 -31.0689 -31.0508 -31.0458 -31.0458
    -8.9846  -7.7348  -7.5636  -7.5635   4.2128   4.2128   4.2479   6.3644
     6.3644   6.5783   6.5784   6.8368   6.8368   7.3531   7.9122   7.9122
    13.6615  17.6208  17.8675  17.8675  17.9372  18.6672

          k = 0.0000 0.2000 0.2000 (  8512 PWs)   bands (ev):

   -64.2883 -64.2799 -64.2799 -64.2790 -31.1080 -31.1080 -31.1073 -31.0847
   -31.0729 -31.0729 -31.0682 -31.0682 -31.0670 -31.0618 -31.0486 -31.0439
    -8.8483  -7.6962  -7.6962  -7.5568   4.3404   4.3404   4.4003   5.7445
     6.4888   6.4888   6.7057   6.7559   6.7559   6.8624   7.7349   7.9490
    14.2550  18.0103  18.1463  18.3983  18.3983  19.3507

          k = 0.0000 0.2000 0.4000 (  8538 PWs)   bands (ev):

   -64.2857 -64.2825 -64.2796 -64.2793 -31.1033 -31.0972 -31.0966 -31.0953
   -31.0835 -31.0800 -31.0663 -31.0654 -31.0651 -31.0584 -31.0561 -31.0487
    -8.4905  -8.0489  -7.6163  -7.5624   4.6046   4.8051   4.9353   5.0638
     5.6579   5.7140   6.6971   6.8173   6.8340   7.1835   7.3062   7.6583
    15.6414  17.2265  18.7471  18.9614  19.1571  19.2684

          k = 0.0000 0.2000-0.4000 (  8538 PWs)   bands (ev):

   -64.2857 -64.2825 -64.2796 -64.2793 -31.1033 -31.0972 -31.0966 -31.0953
   -31.0835 -31.0800 -31.0663 -31.0654 -31.0651 -31.0584 -31.0561 -31.0487
    -8.4905  -8.0489  -7.6163  -7.5624   4.6046   4.8051   4.9353   5.0638
     5.6579   5.7140   6.6971   6.8173   6.8340   7.1835   7.3062   7.6583
    15.6414  17.2265  18.7471  18.9615  19.1571  19.2684

          k = 0.0000 0.2000-0.2000 (  8512 PWs)   bands (ev):

   -64.2883 -64.2799 -64.2799 -64.2790 -31.1080 -31.1080 -31.1073 -31.0847
   -31.0729 -31.0729 -31.0682 -31.0682 -31.0670 -31.0618 -31.0486 -31.0439
    -8.8483  -7.6962  -7.6962  -7.5568   4.3404   4.3404   4.4003   5.7445
     6.4888   6.4888   6.7057   6.7559   6.7559   6.8624   7.7349   7.9490
    14.2550  18.0103  18.1463  18.3983  18.3983  19.3508

          k = 0.0000 0.4000 0.0000 (  8542 PWs)   bands (ev):

   -64.2864 -64.2829 -64.2789 -64.2789 -31.1003 -31.1003 -31.0927 -31.0868
   -31.0868 -31.0735 -31.0735 -31.0703 -31.0617 -31.0617 -31.0529 -31.0529
    -8.6035  -8.1253  -7.5281  -7.5280   4.7601   4.7601   4.9403   5.5608
     5.5608   6.0583   6.3468   6.3469   7.1366   7.1366   7.5447   7.5447
    15.3077  16.9480  18.6064  19.1278  19.1278  19.9457

          k = 0.0000 0.4000 0.2000 (  8538 PWs)   bands (ev):

   -64.2857 -64.2825 -64.2796 -64.2793 -31.1033 -31.0972 -31.0966 -31.0953
   -31.0835 -31.0800 -31.0663 -31.0654 -31.0651 -31.0584 -31.0561 -31.0487
    -8.4905  -8.0489  -7.6163  -7.5624   4.6046   4.8051   4.9353   5.0638
     5.6579   5.7140   6.6971   6.8173   6.8340   7.1835   7.3062   7.6583
    15.6414  17.2265  18.7471  19.1571  19.2684  20.2428

          k = 0.0000 0.4000 0.4000 (  8510 PWs)   bands (ev):

   -64.2838 -64.2815 -64.2815 -64.2803 -31.1033 -31.1033 -31.1031 -31.0945
   -31.0869 -31.0750 -31.0750 -31.0645 -31.0568 -31.0549 -31.0549 -31.0480
    -8.2019  -7.8654  -7.8654  -7.6776   4.5832   4.5832   4.6169   4.9879
     5.4318   6.1434   6.1434   6.7441   7.2117   7.2690   7.2690   7.6309
    16.5379  17.7945  17.7945  18.2789  19.6317  20.0774

          k = 0.0000 0.4000-0.4000 (  8510 PWs)   bands (ev):

   -64.2838 -64.2815 -64.2815 -64.2803 -31.1033 -31.1033 -31.1031 -31.0945
   -31.0869 -31.0750 -31.0750 -31.0645 -31.0568 -31.0549 -31.0549 -31.0480
    -8.2019  -7.8654  -7.8654  -7.6776   4.5832   4.5832   4.6169   4.9879
     5.4318   6.1434   6.1434   6.7441   7.2117   7.2690   7.2690   7.6309
    16.5379  17.7945  17.7945  18.2789  19.6317  20.0773

          k = 0.0000 0.4000-0.2000 (  8538 PWs)   bands (ev):

   -64.2857 -64.2825 -64.2796 -64.2793 -31.1033 -31.0972 -31.0966 -31.0953
   -31.0835 -31.0800 -31.0663 -31.0654 -31.0651 -31.0584 -31.0561 -31.0487
    -8.4905  -8.0489  -7.6163  -7.5624   4.6046   4.8051   4.9353   5.0638
     5.6579   5.7140   6.6971   6.8173   6.8340   7.1835   7.3062   7.6583
    15.6414  17.2265  18.7471  18.9615  19.1571  19.2684

          k = 0.2000 0.0000 0.0000 (  8501 PWs)   bands (ev):

   -64.2893 -64.2800 -64.2789 -64.2789 -31.1114 -31.1114 -31.1095 -31.0758
   -31.0758 -31.0723 -31.0723 -31.0689 -31.0689 -31.0508 -31.0458 -31.0458
    -8.9846  -7.7348  -7.5636  -7.5636   4.2128   4.2128   4.2479   6.3644
     6.3644   6.5784   6.5784   6.8368   6.8368   7.3531   7.9122   7.9122
    13.6615  17.6208  17.8675  17.8675  17.9372  18.6672

          k = 0.2000 0.0000 0.2000 (  8512 PWs)   bands (ev):

   -64.2883 -64.2799 -64.2799 -64.2790 -31.1080 -31.1080 -31.1073 -31.0847
   -31.0729 -31.0729 -31.0682 -31.0682 -31.0670 -31.0618 -31.0486 -31.0439
    -8.8483  -7.6962  -7.6961  -7.5568   4.3404   4.3404   4.4003   5.7445
     6.4888   6.4889   6.7057   6.7559   6.7559   6.8624   7.7349   7.9490
    14.2550  18.0103  18.1462  18.1463  18.3983  18.3983

          k = 0.2000 0.0000 0.4000 (  8538 PWs)   bands (ev):

   -64.2857 -64.2825 -64.2796 -64.2793 -31.1033 -31.0972 -31.0966 -31.0953
   -31.0835 -31.0800 -31.0663 -31.0654 -31.0651 -31.0584 -31.0561 -31.0487
    -8.4905  -8.0489  -7.6163  -7.5624   4.6046   4.8051   4.9353   5.0638
     5.6579   5.7140   6.6971   6.8173   6.8340   7.1835   7.3062   7.6583
    15.6414  17.2265  18.7471  19.1571  19.2684  20.2432

          k = 0.2000 0.0000-0.4000 (  8538 PWs)   bands (ev):

   -64.2857 -64.2825 -64.2796 -64.2793 -31.1033 -31.0972 -31.0966 -31.0953
   -31.0835 -31.0800 -31.0663 -31.0654 -31.0651 -31.0584 -31.0561 -31.0487
    -8.4905  -8.0489  -7.6163  -7.5624   4.6046   4.8051   4.9353   5.0638
     5.6579   5.7140   6.6971   6.8173   6.8340   7.1835   7.3062   7.6583
    15.6414  17.2265  18.7471  18.9614  19.1571  19.2684

          k = 0.2000 0.0000-0.2000 (  8512 PWs)   bands (ev):

   -64.2883 -64.2799 -64.2799 -64.2790 -31.1080 -31.1080 -31.1073 -31.0847
   -31.0729 -31.0729 -31.0682 -31.0682 -31.0670 -31.0618 -31.0486 -31.0439
    -8.8483  -7.6962  -7.6961  -7.5568   4.3404   4.3404   4.4003   5.7445
     6.4888   6.4889   6.7057   6.7559   6.7559   6.8624   7.7349   7.9490
    14.2550  18.0103  18.1462  18.1463  18.3983  18.3983

          k = 0.2000 0.2000 0.0000 (  8512 PWs)   bands (ev):

   -64.2883 -64.2799 -64.2799 -64.2790 -31.1080 -31.1080 -31.1073 -31.0847
   -31.0729 -31.0729 -31.0682 -31.0682 -31.0670 -31.0618 -31.0486 -31.0439
    -8.8483  -7.6962  -7.6961  -7.5568   4.3404   4.3404   4.4003   5.7445
     6.4888   6.4889   6.7057   6.7559   6.7559   6.8624   7.7349   7.9490
    14.2550  18.0103  18.1463  18.1463  18.3983  18.3983

          k = 0.2000 0.2000 0.2000 (  8517 PWs)   bands (ev):

   -64.2874 -64.2799 -64.2799 -64.2799 -31.1085 -31.1085 -31.1085 -31.0765
   -31.0764 -31.0764 -31.0728 -31.0648 -31.0648 -31.0648 -31.0461 -31.0461
    -8.7203  -7.6719  -7.6719  -7.6718   4.3531   4.3531   4.3531   6.1068
     6.1091   6.1092   6.1092   6.9532   6.9533   6.9533   7.8301   7.8301
    14.6515  17.9659  17.9659  17.9659  19.2158  19.2158

          k = 0.2000 0.2000 0.4000 (  8510 PWs)   bands (ev):

   -64.2851 -64.2822 -64.2799 -64.2799 -31.1096 -31.1096 -31.1041 -31.0906
   -31.0789 -31.0789 -31.0623 -31.0623 -31.0616 -31.0590 -31.0518 -31.0499
    -8.3874  -7.9848  -7.6322  -7.6321   4.3411   4.3411   4.5446   5.1844
     5.8452   5.8453   6.8372   6.9496   6.9497   7.2024   7.5215   7.5360
    15.7320  17.1039  18.2408  18.2408  19.4441  20.0339

          k = 0.2000 0.2000-0.4000 (  8510 PWs)   bands (ev):

   -64.2851 -64.2822 -64.2799 -64.2799 -31.1096 -31.1096 -31.1041 -31.0906
   -31.0789 -31.0789 -31.0623 -31.0623 -31.0616 -31.0590 -31.0518 -31.0499
    -8.3874  -7.9848  -7.6322  -7.6321   4.3411   4.3411   4.5446   5.1844
     5.8452   5.8453   6.8372   6.9496   6.9497   7.2024   7.5215   7.5360
    15.7320  17.1039  18.2408  18.2408  19.4441  20.0339

          k = 0.2000 0.2000-0.2000 (  8517 PWs)   bands (ev):

   -64.2874 -64.2799 -64.2799 -64.2799 -31.1085 -31.1085 -31.1085 -31.0765
   -31.0764 -31.0764 -31.0728 -31.0648 -31.0648 -31.0648 -31.0461 -31.0461
    -8.7203  -7.6719  -7.6719  -7.6718   4.3531   4.3531   4.3531   6.1068
     6.1091   6.1092   6.1092   6.9532   6.9533   6.9533   7.8301   7.8301
    14.6515  17.9659  17.9659  17.9659  19.2158  19.2158

          k = 0.2000 0.4000 0.0000 (  8538 PWs)   bands (ev):

   -64.2857 -64.2825 -64.2796 -64.2793 -31.1033 -31.0972 -31.0966 -31.0953
   -31.0835 -31.0800 -31.0663 -31.0654 -31.0651 -31.0584 -31.0561 -31.0487
    -8.4905  -8.0489  -7.6163  -7.5624   4.6046   4.8051   4.9353   5.0638
     5.6579   5.7140   6.6971   6.8173   6.8340   7.1835   7.3062   7.6583
    15.6414  17.2265  18.7471  19.1571  19.2684  20.2428

          k = 0.2000 0.4000 0.2000 (  8510 PWs)   bands (ev):

   -64.2851 -64.2822 -64.2799 -64.2799 -31.1096 -31.1096 -31.1041 -31.0906
   -31.0789 -31.0789 -31.0623 -31.0623 -31.0616 -31.0590 -31.0518 -31.0499
    -8.3874  -7.9848  -7.6322  -7.6321   4.3411   4.3411   4.5446   5.1844
     5.8452   5.8453   6.8372   6.9496   6.9497   7.2024   7.5215   7.5360
    15.7320  17.1039  18.2408  18.2408  19.4441  20.0339

          k = 0.2000 0.4000 0.4000 (  8499 PWs)   bands (ev):

   -64.2835 -64.2815 -64.2815 -64.2806 -31.1157 -31.1135 -31.1135 -31.1059
   -31.0720 -31.0655 -31.0655 -31.0567 -31.0560 -31.0548 -31.0548 -31.0488
    -8.1287  -7.8373  -7.8373  -7.7009   4.0448   4.1381   4.1381   4.4786
     6.1921   6.6032   6.6032   7.1653   7.2498   7.2895   7.2895   7.5890
    16.2058  17.1556  17.1556  17.5297  20.1205  20.3550

          k = 0.2000 0.4000-0.4000 (  8499 PWs)   bands (ev):

   -64.2835 -64.2815 -64.2815 -64.2806 -31.1157 -31.1135 -31.1135 -31.1059
   -31.0720 -31.0655 -31.0655 -31.0567 -31.0560 -31.0548 -31.0548 -31.0488
    -8.1287  -7.8373  -7.8373  -7.7009   4.0448   4.1381   4.1381   4.4786
     6.1921   6.6032   6.6032   7.1653   7.2498   7.2895   7.2895   7.5890
    16.2058  17.1556  17.1556  17.5297  20.1207  20.3554

          k = 0.2000 0.4000-0.2000 (  8510 PWs)   bands (ev):

   -64.2851 -64.2822 -64.2799 -64.2799 -31.1096 -31.1096 -31.1041 -31.0906
   -31.0789 -31.0789 -31.0623 -31.0623 -31.0616 -31.0590 -31.0518 -31.0499
    -8.3874  -7.9848  -7.6322  -7.6321   4.3411   4.3411   4.5446   5.1844
     5.8452   5.8453   6.8372   6.9496   6.9497   7.2024   7.5215   7.5360
    15.7320  17.1039  18.2408  18.2408  19.4441  20.0339

          k = 0.2000-0.4000 0.0000 (  8538 PWs)   bands (ev):

   -64.2857 -64.2825 -64.2796 -64.2793 -31.1033 -31.0972 -31.0966 -31.0953
   -31.0835 -31.0800 -31.0663 -31.0654 -31.0651 -31.0584 -31.0561 -31.0487
    -8.4905  -8.0489  -7.6163  -7.5624   4.6046   4.8051   4.9353   5.0638
     5.6579   5.7140   6.6971   6.8173   6.8340   7.1835   7.3062   7.6583
    15.6414  17.2265  18.7471  18.9615  19.1571  19.2684

          k = 0.2000-0.4000 0.2000 (  8510 PWs)   bands (ev):

   -64.2851 -64.2822 -64.2799 -64.2799 -31.1096 -31.1096 -31.1041 -31.0906
   -31.0789 -31.0789 -31.0623 -31.0623 -31.0616 -31.0590 -31.0518 -31.0499
    -8.3874  -7.9848  -7.6322  -7.6321   4.3411   4.3411   4.5446   5.1844
     5.8452   5.8453   6.8372   6.9496   6.9497   7.2024   7.5215   7.5360
    15.7320  17.1039  18.2408  18.2408  19.4441  20.0339

          k = 0.2000-0.4000 0.4000 (  8499 PWs)   bands (ev):

   -64.2835 -64.2815 -64.2815 -64.2806 -31.1157 -31.1135 -31.1135 -31.1059
   -31.0720 -31.0655 -31.0655 -31.0567 -31.0560 -31.0548 -31.0548 -31.0488
    -8.1287  -7.8373  -7.8373  -7.7009   4.0448   4.1381   4.1381   4.4786
     6.1921   6.6032   6.6032   7.1653   7.2498   7.2895   7.2895   7.5890
    16.2058  17.1556  17.1556  17.5297  20.1206  20.3550

          k = 0.2000-0.4000-0.4000 (  8499 PWs)   bands (ev):

   -64.2835 -64.2815 -64.2815 -64.2806 -31.1157 -31.1135 -31.1135 -31.1059
   -31.0720 -31.0655 -31.0655 -31.0567 -31.0560 -31.0548 -31.0548 -31.0488
    -8.1287  -7.8373  -7.8373  -7.7009   4.0448   4.1381   4.1381   4.4786
     6.1921   6.6032   6.6032   7.1653   7.2498   7.2895   7.2895   7.5890
    16.2058  17.1556  17.1556  17.5297  20.1206  20.3552

          k = 0.2000-0.4000-0.2000 (  8510 PWs)   bands (ev):

   -64.2851 -64.2822 -64.2799 -64.2799 -31.1096 -31.1096 -31.1041 -31.0906
   -31.0789 -31.0789 -31.0623 -31.0623 -31.0616 -31.0590 -31.0518 -31.0499
    -8.3874  -7.9848  -7.6322  -7.6321   4.3411   4.3411   4.5446   5.1844
     5.8452   5.8453   6.8372   6.9496   6.9497   7.2024   7.5215   7.5360
    15.7320  17.1039  18.2408  18.2408  19.4441  20.0339

          k = 0.2000-0.2000 0.0000 (  8512 PWs)   bands (ev):

   -64.2883 -64.2799 -64.2799 -64.2790 -31.1080 -31.1080 -31.1073 -31.0847
   -31.0729 -31.0729 -31.0682 -31.0682 -31.0670 -31.0618 -31.0486 -31.0439
    -8.8483  -7.6962  -7.6961  -7.5568   4.3404   4.3404   4.4003   5.7445
     6.4888   6.4889   6.7057   6.7559   6.7559   6.8624   7.7349   7.9490
    14.2550  18.0103  18.1463  18.1463  18.3983  18.3983

          k = 0.2000-0.2000 0.2000 (  8517 PWs)   bands (ev):

   -64.2874 -64.2799 -64.2799 -64.2799 -31.1085 -31.1085 -31.1085 -31.0765
   -31.0764 -31.0764 -31.0728 -31.0648 -31.0648 -31.0648 -31.0461 -31.0461
    -8.7203  -7.6719  -7.6719  -7.6718   4.3531   4.3531   4.3531   6.1068
     6.1091   6.1092   6.1092   6.9532   6.9533   6.9533   7.8301   7.8301
    14.6515  17.9659  17.9659  17.9659  19.2158  19.2158

          k = 0.2000-0.2000 0.4000 (  8510 PWs)   bands (ev):

   -64.2851 -64.2822 -64.2799 -64.2799 -31.1096 -31.1096 -31.1041 -31.0906
   -31.0789 -31.0789 -31.0623 -31.0623 -31.0616 -31.0590 -31.0518 -31.0499
    -8.3874  -7.9848  -7.6322  -7.6321   4.3411   4.3411   4.5446   5.1844
     5.8452   5.8453   6.8372   6.9496   6.9497   7.2025   7.5215   7.5360
    15.7320  17.1039  18.2408  18.2408  19.4441  20.0339

          k = 0.2000-0.2000-0.4000 (  8510 PWs)   bands (ev):

   -64.2851 -64.2822 -64.2799 -64.2799 -31.1096 -31.1096 -31.1041 -31.0906
   -31.0789 -31.0789 -31.0623 -31.0623 -31.0616 -31.0590 -31.0518 -31.0499
    -8.3874  -7.9848  -7.6322  -7.6321   4.3411   4.3411   4.5446   5.1844
     5.8452   5.8453   6.8372   6.9496   6.9497   7.2025   7.5215   7.5360
    15.7320  17.1039  18.2408  18.2408  19.4441  20.0339

          k = 0.2000-0.2000-0.2000 (  8517 PWs)   bands (ev):

   -64.2874 -64.2799 -64.2799 -64.2799 -31.1085 -31.1085 -31.1085 -31.0765
   -31.0764 -31.0764 -31.0728 -31.0648 -31.0648 -31.0648 -31.0461 -31.0461
    -8.7203  -7.6719  -7.6719  -7.6718   4.3531   4.3531   4.3531   6.1068
     6.1091   6.1092   6.1092   6.9532   6.9533   6.9533   7.8301   7.8301
    14.6515  17.9659  17.9659  17.9659  19.2158  19.2158

          k = 0.4000 0.0000 0.0000 (  8542 PWs)   bands (ev):

   -64.2864 -64.2829 -64.2789 -64.2789 -31.1003 -31.1003 -31.0927 -31.0868
   -31.0868 -31.0735 -31.0735 -31.0703 -31.0617 -31.0617 -31.0529 -31.0529
    -8.6035  -8.1253  -7.5280  -7.5280   4.7601   4.7601   4.9403   5.5608
     5.5608   6.0583   6.3469   6.3469   7.1366   7.1366   7.5447   7.5447
    15.3077  16.9480  18.6064  19.1278  19.9456  19.9457

          k = 0.4000 0.0000 0.2000 (  8538 PWs)   bands (ev):

   -64.2857 -64.2825 -64.2796 -64.2793 -31.1033 -31.0972 -31.0966 -31.0953
   -31.0835 -31.0800 -31.0663 -31.0654 -31.0651 -31.0584 -31.0561 -31.0487
    -8.4905  -8.0489  -7.6163  -7.5624   4.6046   4.8051   4.9353   5.0638
     5.6579   5.7140   6.6971   6.8173   6.8340   7.1835   7.3062   7.6583
    15.6414  17.2265  18.7471  18.9614  19.1571  19.2684

          k = 0.4000 0.0000 0.4000 (  8510 PWs)   bands (ev):

   -64.2838 -64.2815 -64.2815 -64.2803 -31.1033 -31.1032 -31.1031 -31.0945
   -31.0869 -31.0750 -31.0750 -31.0645 -31.0568 -31.0549 -31.0549 -31.0480
    -8.2019  -7.8655  -7.8653  -7.6776   4.5832   4.5833   4.6169   4.9879
     5.4318   6.1433   6.1434   6.7441   7.2117   7.2689   7.2690   7.6309
    16.5379  17.7945  17.7945  18.2789  19.6316  19.6318

          k = 0.4000 0.0000-0.4000 (  8510 PWs)   bands (ev):

   -64.2838 -64.2815 -64.2815 -64.2803 -31.1033 -31.1032 -31.1031 -31.0945
   -31.0869 -31.0750 -31.0750 -31.0645 -31.0568 -31.0549 -31.0549 -31.0480
    -8.2019  -7.8655  -7.8653  -7.6776   4.5832   4.5833   4.6169   4.9879
     5.4318   6.1433   6.1434   6.7441   7.2117   7.2689   7.2690   7.6309
    16.5379  17.7945  17.7945  18.2789  19.6318  20.0768

          k = 0.4000 0.0000-0.2000 (  8538 PWs)   bands (ev):

   -64.2857 -64.2825 -64.2796 -64.2793 -31.1033 -31.0972 -31.0966 -31.0953
   -31.0835 -31.0800 -31.0663 -31.0654 -31.0651 -31.0584 -31.0561 -31.0487
    -8.4905  -8.0489  -7.6163  -7.5624   4.6046   4.8051   4.9353   5.0638
     5.6579   5.7140   6.6971   6.8173   6.8340   7.1835   7.3062   7.6583
    15.6414  17.2265  18.7471  18.9615  19.1571  19.2684

          k = 0.4000 0.2000 0.0000 (  8538 PWs)   bands (ev):

   -64.2857 -64.2825 -64.2796 -64.2793 -31.1033 -31.0972 -31.0966 -31.0953
   -31.0835 -31.0800 -31.0663 -31.0654 -31.0651 -31.0584 -31.0561 -31.0487
    -8.4905  -8.0489  -7.6163  -7.5624   4.6046   4.8051   4.9353   5.0638
     5.6579   5.7140   6.6971   6.8173   6.8340   7.1835   7.3062   7.6583
    15.6414  17.2265  18.7471  19.1572  19.2683  20.2428

          k = 0.4000 0.2000 0.2000 (  8510 PWs)   bands (ev):

   -64.2851 -64.2822 -64.2799 -64.2799 -31.1096 -31.1096 -31.1041 -31.0906
   -31.0789 -31.0789 -31.0623 -31.0623 -31.0616 -31.0590 -31.0518 -31.0499
    -8.3874  -7.9848  -7.6321  -7.6321   4.3411   4.3411   4.5446   5.1844
     5.8453   5.8453   6.8372   6.9496   6.9496   7.2024   7.5215   7.5360
    15.7320  17.1039  18.2408  18.2408  19.4441  20.0339

          k = 0.4000 0.2000 0.4000 (  8499 PWs)   bands (ev):

   -64.2835 -64.2815 -64.2815 -64.2806 -31.1157 -31.1135 -31.1135 -31.1059
   -31.0720 -31.0655 -31.0654 -31.0567 -31.0560 -31.0548 -31.0548 -31.0488
    -8.1287  -7.8374  -7.8373  -7.7009   4.0448   4.1381   4.1381   4.4786
     6.1921   6.6031   6.6032   7.1653   7.2498   7.2895   7.2896   7.5890
    16.2058  17.1556  17.1556  17.5297  20.1206  20.3539

          k = 0.4000 0.2000-0.4000 (  8499 PWs)   bands (ev):

   -64.2835 -64.2815 -64.2815 -64.2806 -31.1157 -31.1135 -31.1135 -31.1059
   -31.0720 -31.0655 -31.0654 -31.0567 -31.0560 -31.0548 -31.0548 -31.0488
    -8.1287  -7.8374  -7.8373  -7.7009   4.0448   4.1381   4.1381   4.4786
     6.1921   6.6031   6.6032   7.1653   7.2498   7.2895   7.2896   7.5890
    16.2058  17.1556  17.1556  17.5297  20.1206  20.3554

          k = 0.4000 0.2000-0.2000 (  8510 PWs)   bands (ev):

   -64.2851 -64.2822 -64.2799 -64.2799 -31.1096 -31.1096 -31.1041 -31.0906
   -31.0789 -31.0789 -31.0623 -31.0623 -31.0616 -31.0590 -31.0518 -31.0499
    -8.3874  -7.9848  -7.6321  -7.6321   4.3411   4.3411   4.5446   5.1844
     5.8453   5.8453   6.8372   6.9496   6.9496   7.2024   7.5215   7.5360
    15.7320  17.1039  18.2408  18.2408  19.4441  20.0339

          k = 0.4000 0.4000 0.0000 (  8510 PWs)   bands (ev):

   -64.2838 -64.2815 -64.2815 -64.2803 -31.1033 -31.1032 -31.1031 -31.0945
   -31.0869 -31.0750 -31.0750 -31.0645 -31.0568 -31.0549 -31.0549 -31.0480
    -8.2019  -7.8654  -7.8654  -7.6776   4.5832   4.5833   4.6169   4.9879
     5.4318   6.1434   6.1434   6.7441   7.2117   7.2690   7.2690   7.6309
    16.5379  17.7945  17.7945  18.2789  19.6317  20.0773

          k = 0.4000 0.4000 0.2000 (  8499 PWs)   bands (ev):

   -64.2835 -64.2815 -64.2815 -64.2806 -31.1157 -31.1135 -31.1135 -31.1059
   -31.0720 -31.0655 -31.0655 -31.0567 -31.0560 -31.0548 -31.0548 -31.0488
    -8.1287  -7.8374  -7.8373  -7.7009   4.0448   4.1381   4.1381   4.4786
     6.1921   6.6032   6.6032   7.1653   7.2498   7.2895   7.2895   7.5890
    16.2058  17.1556  17.1556  17.5297  20.1207  20.3553

          k = 0.4000 0.4000 0.4000 (  8465 PWs)   bands (ev):

   -64.2826 -64.2815 -64.2815 -64.2815 -31.1246 -31.1246 -31.1246 -31.1205
   -31.0565 -31.0565 -31.0565 -31.0537 -31.0537 -31.0537 -31.0510 -31.0510
    -7.9569  -7.7913  -7.7913  -7.7912   3.6472   3.6473   3.6473   3.8283
     7.0930   7.0931   7.0931   7.3514   7.3514   7.3515   7.4810   7.4810
    15.9512  16.4583  16.4583  16.4583  20.5584  20.5585

          k = 0.4000 0.4000-0.4000 (  8465 PWs)   bands (ev):

   -64.2826 -64.2815 -64.2815 -64.2815 -31.1246 -31.1246 -31.1246 -31.1205
   -31.0565 -31.0565 -31.0565 -31.0537 -31.0537 -31.0537 -31.0510 -31.0510
    -7.9569  -7.7913  -7.7913  -7.7912   3.6472   3.6473   3.6473   3.8283
     7.0930   7.0931   7.0931   7.3514   7.3514   7.3515   7.4810   7.4810
    15.9512  16.4583  16.4583  16.4583  20.5584  20.5585

          k = 0.4000 0.4000-0.2000 (  8499 PWs)   bands (ev):

   -64.2835 -64.2815 -64.2815 -64.2806 -31.1157 -31.1135 -31.1135 -31.1059
   -31.0720 -31.0655 -31.0655 -31.0567 -31.0560 -31.0548 -31.0548 -31.0488
    -8.1287  -7.8374  -7.8373  -7.7009   4.0448   4.1381   4.1381   4.4786
     6.1921   6.6032   6.6032   7.1653   7.2498   7.2895   7.2895   7.5890
    16.2058  17.1556  17.1556  17.5297  20.1206  20.3554

          k = 0.4000-0.4000 0.0000 (  8510 PWs)   bands (ev):

   -64.2838 -64.2815 -64.2815 -64.2803 -31.1033 -31.1032 -31.1031 -31.0945
   -31.0869 -31.0750 -31.0750 -31.0645 -31.0568 -31.0549 -31.0549 -31.0480
    -8.2019  -7.8654  -7.8654  -7.6776   4.5832   4.5833   4.6169   4.9879
     5.4318   6.1434   6.1434   6.7441   7.2117   7.2690   7.2690   7.6309
    16.5379  17.7945  17.7945  18.2789  19.6319  20.0774

          k = 0.4000-0.4000 0.2000 (  8499 PWs)   bands (ev):

   -64.2835 -64.2815 -64.2815 -64.2806 -31.1157 -31.1135 -31.1135 -31.1059
   -31.0720 -31.0655 -31.0655 -31.0567 -31.0560 -31.0548 -31.0548 -31.0488
    -8.1287  -7.8374  -7.8373  -7.7009   4.0448   4.1381   4.1381   4.4786
     6.1921   6.6032   6.6032   7.1653   7.2498   7.2895   7.2895   7.5890
    16.2058  17.1556  17.1556  17.5297  20.1209  20.3554

          k = 0.4000-0.4000 0.4000 (  8465 PWs)   bands (ev):

   -64.2826 -64.2815 -64.2815 -64.2815 -31.1246 -31.1246 -31.1246 -31.1205
   -31.0565 -31.0565 -31.0565 -31.0537 -31.0537 -31.0537 -31.0510 -31.0510
    -7.9569  -7.7913  -7.7913  -7.7912   3.6472   3.6473   3.6473   3.8283
     7.0930   7.0931   7.0931   7.3514   7.3514   7.3515   7.4810   7.4810
    15.9512  16.4583  16.4583  16.4583  20.5584  20.5585

          k = 0.4000-0.4000-0.4000 (  8465 PWs)   bands (ev):

   -64.2826 -64.2815 -64.2815 -64.2815 -31.1246 -31.1246 -31.1246 -31.1205
   -31.0565 -31.0565 -31.0565 -31.0537 -31.0537 -31.0537 -31.0510 -31.0510
    -7.9569  -7.7913  -7.7913  -7.7912   3.6472   3.6473   3.6473   3.8283
     7.0930   7.0931   7.0931   7.3514   7.3514   7.3515   7.4810   7.4810
    15.9512  16.4583  16.4583  16.4583  20.5584  20.5585

          k = 0.4000-0.4000-0.2000 (  8499 PWs)   bands (ev):

   -64.2835 -64.2815 -64.2815 -64.2806 -31.1157 -31.1135 -31.1135 -31.1059
   -31.0720 -31.0655 -31.0655 -31.0567 -31.0560 -31.0548 -31.0548 -31.0488
    -8.1287  -7.8374  -7.8373  -7.7009   4.0448   4.1381   4.1381   4.4786
     6.1921   6.6032   6.6032   7.1653   7.2498   7.2895   7.2895   7.5890
    16.2058  17.1556  17.1556  17.5297  20.1205  20.3553

          k = 0.4000-0.2000 0.0000 (  8538 PWs)   bands (ev):

   -64.2857 -64.2825 -64.2796 -64.2793 -31.1033 -31.0972 -31.0966 -31.0953
   -31.0835 -31.0800 -31.0663 -31.0654 -31.0651 -31.0584 -31.0561 -31.0487
    -8.4905  -8.0489  -7.6163  -7.5624   4.6046   4.8051   4.9353   5.0638
     5.6579   5.7140   6.6971   6.8173   6.8340   7.1835   7.3062   7.6583
    15.6414  17.2265  18.7471  18.9614  19.1571  19.2684

          k = 0.4000-0.2000 0.2000 (  8510 PWs)   bands (ev):

   -64.2851 -64.2822 -64.2799 -64.2799 -31.1096 -31.1096 -31.1041 -31.0906
   -31.0789 -31.0789 -31.0623 -31.0623 -31.0616 -31.0590 -31.0518 -31.0499
    -8.3874  -7.9848  -7.6321  -7.6321   4.3411   4.3411   4.5446   5.1844
     5.8453   5.8453   6.8372   6.9496   6.9496   7.2024   7.5215   7.5360
    15.7320  17.1039  18.2408  18.2408  19.4441  20.0339

          k = 0.4000-0.2000 0.4000 (  8499 PWs)   bands (ev):

   -64.2835 -64.2815 -64.2815 -64.2806 -31.1157 -31.1135 -31.1135 -31.1059
   -31.0720 -31.0655 -31.0654 -31.0567 -31.0560 -31.0548 -31.0548 -31.0488
    -8.1287  -7.8374  -7.8373  -7.7009   4.0448   4.1381   4.1381   4.4786
     6.1921   6.6031   6.6032   7.1653   7.2498   7.2895   7.2896   7.5890
    16.2058  17.1556  17.1556  17.5297  20.1206  20.3554

          k = 0.4000-0.2000-0.4000 (  8499 PWs)   bands (ev):

   -64.2835 -64.2815 -64.2815 -64.2806 -31.1157 -31.1135 -31.1135 -31.1059
   -31.0720 -31.0655 -31.0654 -31.0567 -31.0560 -31.0548 -31.0548 -31.0488
    -8.1287  -7.8374  -7.8373  -7.7009   4.0448   4.1381   4.1381   4.4786
     6.1921   6.6031   6.6032   7.1653   7.2498   7.2895   7.2896   7.5890
    16.2058  17.1556  17.1556  17.5297  20.1210  20.3534

          k = 0.4000-0.2000-0.2000 (  8510 PWs)   bands (ev):

   -64.2851 -64.2822 -64.2799 -64.2799 -31.1096 -31.1096 -31.1041 -31.0906
   -31.0789 -31.0789 -31.0623 -31.0623 -31.0616 -31.0590 -31.0518 -31.0499
    -8.3874  -7.9848  -7.6321  -7.6321   4.3411   4.3411   4.5446   5.1844
     5.8453   5.8453   6.8372   6.9496   6.9496   7.2024   7.5215   7.5360
    15.7320  17.1039  18.2408  18.2408  19.4441  20.0339

     the Fermi energy is    10.0544 ev

!    total energy              =    -608.51633070 Ry
     estimated scf accuracy    <       0.00000002 Ry
     smearing contrib. (-TS)   =      -0.00000000 Ry
     internal energy E=F+TS    =    -608.51633070 Ry

     The total energy is F=E-TS. E is the sum of the following terms:
     one-electron contribution =    -297.28485513 Ry
     hartree contribution      =     166.02663794 Ry
     xc contribution           =     -97.98764698 Ry
     ewald contribution        =    -379.16241501 Ry
     DFT-D3 Dispersion         =      -0.10805152 Ry

     convergence has been achieved in   8 iterations

     Forces acting on atoms (cartesian axes, Ry/au):

     atom    1 type  1   force =     0.00000019    0.00000064   -0.00000025
     atom    2 type  1   force =     0.00000006    0.00000052   -0.00000001
     atom    3 type  1   force =    -0.00000013    0.00000001   -0.00000018
     atom    4 type  1   force =    -0.00000007   -0.00000112    0.00000051
     atom    5 type  2   force =    -0.00000020    0.00000007   -0.00000054
     atom    6 type  2   force =     0.00000009    0.00000073    0.00000016
     atom    7 type  2   force =    -0.00000012   -0.00000046    0.00000006
     atom    8 type  2   force =     0.00000019   -0.00000039    0.00000026

     Total force =     0.000002     Total SCF correction =     0.000016
     SCF correction compared to forces is large: reduce conv_thr to get better values


     Computing stress (Cartesian axis) and pressure

          total   stress  (Ry/bohr**3)                   (kbar)     P=       12.04
   0.00008183   0.00000000   0.00000000           12.04        0.00        0.00
   0.00000000   0.00008183  -0.00000000            0.00       12.04       -0.00
   0.00000000  -0.00000000   0.00008183            0.00       -0.00       12.04


     BFGS Geometry Optimization

     number of scf cycles    =   1
     number of bfgs steps    =   0

     enthalpy new            =    -608.1737801615 Ry

     new trust radius        =       0.0671143960 bohr
     new conv_thr            =       0.0000010000 Ry

     new unit-cell volume =    481.64675 a.u.^3 (    71.37268 Ang^3 )
     density =      3.75081 g/cm^3

CELL_PARAMETERS (angstrom)
   4.148050421   0.000000098   0.000000009
   0.000000098   4.148050231  -0.000000077
   0.000000009  -0.000000077   4.148050139

ATOMIC_POSITIONS (angstrom)
Mg            0.0000001013        0.0000003349       -0.0000001312
Mg            0.0000000850        2.0740253462        2.0740250236
Mg            2.0740251455        0.0000000143        2.0740249789
Mg            2.0740252228        2.0740245817        0.0000002328
O             2.0740251574        2.0740251622        2.0740247549
O             2.0740252549        0.0000004309        0.0000000860
O            -0.0000000147        2.0740248762       -0.0000000097
O             0.0000001034       -0.0000002403        2.0740252069


     NEW-OLD atomic charge density approx. for the potential
     extrapolated charge   61.04196, renormalised to   64.00000

     total cpu time spent up to now is       57.5 secs

     Self-consistent Calculation

     iteration #  1     ecut=   100.00 Ry     beta= 0.50
     Davidson diagonalization with overlap
     ethr =  1.00E-06,  avg # of iterations =  8.4

     total cpu time spent up to now is       71.1 secs

     total energy              =    -608.23555263 Ry
     estimated scf accuracy    <       0.16851058 Ry

     iteration #  2     ecut=   100.00 Ry     beta= 0.50
     Davidson diagonalization with overlap
     ethr =  2.63E-04,  avg # of iterations =  3.1

     total cpu time spent up to now is       77.7 secs

     total energy              =    -608.51329828 Ry
     estimated scf accuracy    <       0.20850085 Ry

     iteration #  3     ecut=   100.00 Ry     beta= 0.50
     Davidson diagonalization with overlap
     ethr =  2.63E-04,  avg # of iterations =  2.0

     total cpu time spent up to now is       82.1 secs

     total energy              =    -608.51152345 Ry
     estimated scf accuracy    <       0.04544069 Ry

     iteration #  4     ecut=   100.00 Ry     beta= 0.50
     Davidson diagonalization with overlap
     ethr =  7.10E-05,  avg # of iterations =  2.0

     total cpu time spent up to now is       86.4 secs

     total energy              =    -608.50766048 Ry
     estimated scf accuracy    <       0.01308271 Ry

     iteration #  5     ecut=   100.00 Ry     beta= 0.50
     Davidson diagonalization with overlap
     ethr =  2.04E-05,  avg # of iterations =  2.7

     total cpu time spent up to now is       91.0 secs

     total energy              =    -608.50850482 Ry
     estimated scf accuracy    <       0.00096853 Ry

     iteration #  6     ecut=   100.00 Ry     beta= 0.50
     Davidson diagonalization with overlap
     ethr =  1.51E-06,  avg # of iterations =  3.4

     total cpu time spent up to now is       96.2 secs

     total energy              =    -608.50868386 Ry
     estimated scf accuracy    <       0.00001818 Ry

     iteration #  7     ecut=   100.00 Ry     beta= 0.50
     Davidson diagonalization with overlap
     ethr =  2.84E-08,  avg # of iterations =  1.7

     total cpu time spent up to now is      100.5 secs

     total energy              =    -608.50867357 Ry
     estimated scf accuracy    <       0.00002349 Ry

     iteration #  8     ecut=   100.00 Ry     beta= 0.50
     Davidson diagonalization with overlap
     ethr =  2.84E-08,  avg # of iterations =  2.0

     total cpu time spent up to now is      105.4 secs

     total energy              =    -608.50867326 Ry
     estimated scf accuracy    <       0.00000336 Ry

     iteration #  9     ecut=   100.00 Ry     beta= 0.50
     Davidson diagonalization with overlap
     ethr =  5.25E-09,  avg # of iterations =  2.0

     total cpu time spent up to now is      110.8 secs

     End of self-consistent calculation

          k = 0.0000 0.0000 0.0000 (  8409 PWs)   bands (ev):

   -63.5677 -63.5533 -63.5533 -63.5533 -30.4095 -30.4095 -30.4095 -30.3568
   -30.3568 -30.3568 -30.3568 -30.3568 -30.3568 -30.3228 -30.3228 -30.3228
    -8.7916  -7.1152  -7.1152  -7.1152   4.4072   4.4072   4.4072   7.2345
     7.2345   7.2345   7.2345   7.2345   7.2345   8.6318   8.6318   8.6318
    13.8628  17.9192  17.9192  19.1563  19.1563  19.1563

          k =-0.0000 0.0000 0.2030 (  8501 PWs)   bands (ev):

   -63.5663 -63.5547 -63.5533 -63.5533 -30.4045 -30.4045 -30.4023 -30.3618
   -30.3618 -30.3577 -30.3577 -30.3535 -30.3535 -30.3322 -30.3261 -30.3261
    -8.6355  -7.2780  -7.0901  -7.0901   4.6050   4.6050   4.6508   6.8496
     6.8496   7.0774   7.0774   7.3470   7.3470   7.9128   8.4723   8.4723
    14.6813  18.2594  18.5494  18.5494  19.0128  19.7546

          k =-0.0000 0.0000 0.4061 (  8542 PWs)   bands (ev):

   -63.5627 -63.5582 -63.5533 -63.5533 -30.3912 -30.3912 -30.3824 -30.3749
   -30.3749 -30.3592 -30.3592 -30.3556 -30.3450 -30.3450 -30.3345 -30.3345
    -8.2222  -7.7028  -7.0489  -7.0489   5.1722   5.1722   5.3904   6.0062
     6.0062   6.5701   6.8344   6.8344   7.6591   7.6591   8.0859   8.0859
    16.3411  18.0068  19.2753  19.9385  19.9385  21.0669

          k =-0.0000 0.2030 0.0000 (  8501 PWs)   bands (ev):

   -63.5663 -63.5547 -63.5533 -63.5533 -30.4045 -30.4045 -30.4023 -30.3618
   -30.3618 -30.3577 -30.3577 -30.3535 -30.3535 -30.3322 -30.3261 -30.3261
    -8.6355  -7.2780  -7.0901  -7.0901   4.6050   4.6050   4.6508   6.8496
     6.8496   7.0774   7.0774   7.3470   7.3470   7.9128   8.4723   8.4723
    14.6813  18.2594  18.5494  18.5494  19.0128  19.7546

          k =-0.0000 0.2030 0.2030 (  8512 PWs)   bands (ev):

   -63.5650 -63.5545 -63.5545 -63.5534 -30.4005 -30.4005 -30.3996 -30.3726
   -30.3584 -30.3584 -30.3527 -30.3527 -30.3513 -30.3454 -30.3294 -30.3238
    -8.4875  -7.2343  -7.2343  -7.0812   4.7461   4.7461   4.7990   6.2043
     6.9790   6.9790   7.2463   7.2601   7.2601   7.3689   8.2848   8.5053
    15.2751  18.7667  18.8378  18.8378  19.4779  19.4779

          k =-0.0000 0.2030 0.4061 (  8538 PWs)   bands (ev):

   -63.5618 -63.5578 -63.5542 -63.5537 -30.3950 -30.3878 -30.3868 -30.3854
   -30.3711 -30.3674 -30.3505 -30.3494 -30.3489 -30.3411 -30.3383 -30.3294
    -8.0987  -7.6182  -7.1444  -7.0852   5.0184   5.2488   5.3538   5.4943
     6.1534   6.1653   7.1939   7.3181   7.3387   7.7026   7.8333   8.1978
    16.6710  18.2780  19.5983  19.6817  20.0853  20.1723

          k =-0.0000 0.2030-0.4061 (  8538 PWs)   bands (ev):

   -63.5618 -63.5578 -63.5542 -63.5537 -30.3950 -30.3878 -30.3868 -30.3854
   -30.3711 -30.3674 -30.3505 -30.3494 -30.3489 -30.3411 -30.3383 -30.3294
    -8.0987  -7.6182  -7.1444  -7.0852   5.0184   5.2488   5.3538   5.4943
     6.1534   6.1653   7.1939   7.3181   7.3387   7.7026   7.8333   8.1978
    16.6710  18.2780  19.5983  19.6817  20.0853  20.1723

          k =-0.0000 0.2030-0.2030 (  8512 PWs)   bands (ev):

   -63.5650 -63.5545 -63.5545 -63.5534 -30.4005 -30.4005 -30.3996 -30.3726
   -30.3584 -30.3584 -30.3527 -30.3527 -30.3513 -30.3454 -30.3294 -30.3238
    -8.4875  -7.2343  -7.2343  -7.0812   4.7461   4.7461   4.7990   6.2043
     6.9790   6.9790   7.2463   7.2601   7.2601   7.3689   8.2848   8.5053
    15.2751  18.7667  18.8378  18.8378  19.4779  19.4779

          k =-0.0000 0.4061 0.0000 (  8542 PWs)   bands (ev):

   -63.5627 -63.5582 -63.5533 -63.5533 -30.3912 -30.3912 -30.3824 -30.3749
   -30.3749 -30.3592 -30.3592 -30.3556 -30.3450 -30.3450 -30.3345 -30.3345
    -8.2222  -7.7028  -7.0489  -7.0489   5.1722   5.1722   5.3904   6.0062
     6.0062   6.5701   6.8344   6.8344   7.6591   7.6591   8.0859   8.0859
    16.3411  18.0068  19.2753  19.9385  19.9385  21.0669

          k =-0.0000 0.4061 0.2030 (  8538 PWs)   bands (ev):

   -63.5618 -63.5578 -63.5542 -63.5537 -30.3950 -30.3878 -30.3868 -30.3854
   -30.3711 -30.3674 -30.3505 -30.3494 -30.3489 -30.3411 -30.3383 -30.3294
    -8.0987  -7.6182  -7.1444  -7.0852   5.0184   5.2488   5.3538   5.4943
     6.1534   6.1653   7.1939   7.3181   7.3387   7.7026   7.8333   8.1978
    16.6710  18.2780  19.5983  19.6817  20.0853  20.1723

          k =-0.0000 0.4061 0.4061 (  8510 PWs)   bands (ev):

   -63.5594 -63.5565 -63.5565 -63.5550 -30.3952 -30.3952 -30.3950 -30.3848
   -30.3752 -30.3609 -30.3609 -30.3484 -30.3390 -30.3367 -30.3367 -30.3285
    -7.7831  -7.4155  -7.4155  -7.2094   5.0113   5.0113   5.0363   5.4481
     5.8696   6.6125   6.6125   7.2411   7.7240   7.7843   7.7843   8.1619
    17.5573  18.8050  18.8050  19.2057  20.4611  20.9868

          k =-0.0000 0.4061-0.4061 (  8510 PWs)   bands (ev):

   -63.5594 -63.5565 -63.5565 -63.5550 -30.3952 -30.3952 -30.3950 -30.3848
   -30.3752 -30.3609 -30.3609 -30.3484 -30.3390 -30.3367 -30.3367 -30.3285
    -7.7831  -7.4155  -7.4155  -7.2094   5.0113   5.0113   5.0363   5.4481
     5.8696   6.6125   6.6125   7.2411   7.7240   7.7843   7.7843   8.1619
    17.5573  18.8050  18.8050  19.2057  20.4611  20.4613

          k =-0.0000 0.4061-0.2030 (  8538 PWs)   bands (ev):

   -63.5618 -63.5578 -63.5542 -63.5537 -30.3950 -30.3878 -30.3868 -30.3854
   -30.3711 -30.3674 -30.3505 -30.3494 -30.3489 -30.3411 -30.3383 -30.3294
    -8.0987  -7.6182  -7.1444  -7.0852   5.0184   5.2488   5.3538   5.4943
     6.1534   6.1653   7.1939   7.3181   7.3387   7.7026   7.8333   8.1978
    16.6710  18.2780  19.5983  19.6817  20.0853  20.1723

          k = 0.2030-0.0000-0.0000 (  8501 PWs)   bands (ev):

   -63.5663 -63.5547 -63.5533 -63.5533 -30.4045 -30.4045 -30.4023 -30.3618
   -30.3618 -30.3577 -30.3577 -30.3535 -30.3535 -30.3322 -30.3261 -30.3261
    -8.6355  -7.2780  -7.0901  -7.0901   4.6050   4.6050   4.6508   6.8496
     6.8496   7.0774   7.0774   7.3470   7.3470   7.9128   8.4723   8.4723
    14.6813  18.2594  18.5494  18.5494  19.0128  19.7546

          k = 0.2030-0.0000 0.2030 (  8512 PWs)   bands (ev):

   -63.5650 -63.5545 -63.5545 -63.5534 -30.4005 -30.4005 -30.3996 -30.3726
   -30.3584 -30.3584 -30.3527 -30.3527 -30.3513 -30.3454 -30.3294 -30.3238
    -8.4875  -7.2343  -7.2343  -7.0812   4.7461   4.7461   4.7990   6.2043
     6.9790   6.9790   7.2463   7.2601   7.2601   7.3689   8.2848   8.5053
    15.2751  18.7667  18.8378  18.8378  19.4779  19.4779

          k = 0.2030 0.0000 0.4061 (  8538 PWs)   bands (ev):

   -63.5618 -63.5578 -63.5542 -63.5537 -30.3950 -30.3878 -30.3868 -30.3854
   -30.3711 -30.3674 -30.3505 -30.3494 -30.3489 -30.3411 -30.3383 -30.3294
    -8.0987  -7.6182  -7.1444  -7.0852   5.0184   5.2488   5.3538   5.4943
     6.1534   6.1653   7.1939   7.3181   7.3387   7.7026   7.8333   8.1978
    16.6710  18.2780  19.5983  19.6817  20.0853  20.1723

          k = 0.2030-0.0000-0.4061 (  8538 PWs)   bands (ev):

   -63.5618 -63.5578 -63.5542 -63.5537 -30.3950 -30.3878 -30.3868 -30.3854
   -30.3711 -30.3674 -30.3505 -30.3494 -30.3489 -30.3411 -30.3383 -30.3294
    -8.0987  -7.6182  -7.1444  -7.0852   5.0184   5.2488   5.3538   5.4943
     6.1534   6.1653   7.1939   7.3181   7.3387   7.7026   7.8333   8.1978
    16.6710  18.2780  19.5983  19.6817  20.0853  20.1723

          k = 0.2030-0.0000-0.2030 (  8512 PWs)   bands (ev):

   -63.5650 -63.5545 -63.5545 -63.5534 -30.4005 -30.4005 -30.3996 -30.3726
   -30.3584 -30.3584 -30.3527 -30.3527 -30.3513 -30.3454 -30.3294 -30.3238
    -8.4875  -7.2343  -7.2343  -7.0812   4.7461   4.7461   4.7990   6.2043
     6.9790   6.9790   7.2463   7.2601   7.2601   7.3689   8.2848   8.5053
    15.2751  18.7667  18.8378  18.8378  19.4779  19.4779

          k = 0.2030 0.2030 0.0000 (  8512 PWs)   bands (ev):

   -63.5650 -63.5545 -63.5545 -63.5534 -30.4005 -30.4005 -30.3996 -30.3726
   -30.3584 -30.3584 -30.3527 -30.3527 -30.3513 -30.3454 -30.3294 -30.3238
    -8.4875  -7.2343  -7.2343  -7.0812   4.7461   4.7461   4.7990   6.2043
     6.9790   6.9790   7.2463   7.2601   7.2601   7.3689   8.2848   8.5053
    15.2751  18.7667  18.8378  18.8378  19.4779  19.4779

          k = 0.2030 0.2030 0.2030 (  8517 PWs)   bands (ev):

   -63.5639 -63.5545 -63.5545 -63.5545 -30.4012 -30.4012 -30.4012 -30.3626
   -30.3626 -30.3626 -30.3587 -30.3486 -30.3486 -30.3486 -30.3264 -30.3264
    -8.3482  -7.2063  -7.2062  -7.2062   4.7584   4.7584   4.7584   6.5803
     6.5803   6.5803   6.6225   7.4631   7.4631   7.4631   8.3799   8.3799
    15.6633  18.7892  18.7892  18.7893  20.2126  20.2126

          k = 0.2030 0.2030 0.4061 (  8510 PWs)   bands (ev):

   -63.5610 -63.5574 -63.5545 -63.5545 -30.4026 -30.4026 -30.3962 -30.3801
   -30.3655 -30.3655 -30.3456 -30.3456 -30.3449 -30.3417 -30.3332 -30.3309
    -7.9856  -7.5469  -7.1602  -7.1602   4.7432   4.7432   4.9741   5.6554
     6.3021   6.3021   7.3363   7.4547   7.4547   7.7223   8.0520   8.0708
    16.7316  18.0781  19.1274  19.1274  20.2850  21.0181

          k = 0.2030 0.2030-0.4061 (  8510 PWs)   bands (ev):

   -63.5610 -63.5574 -63.5545 -63.5545 -30.4026 -30.4026 -30.3962 -30.3801
   -30.3655 -30.3655 -30.3456 -30.3456 -30.3449 -30.3417 -30.3332 -30.3309
    -7.9856  -7.5469  -7.1602  -7.1602   4.7432   4.7432   4.9741   5.6554
     6.3021   6.3021   7.3363   7.4547   7.4547   7.7223   8.0520   8.0708
    16.7316  18.0781  19.1274  19.1274  20.2850  21.0181

          k = 0.2030 0.2030-0.2030 (  8517 PWs)   bands (ev):

   -63.5639 -63.5545 -63.5545 -63.5545 -30.4012 -30.4012 -30.4012 -30.3626
   -30.3626 -30.3626 -30.3587 -30.3486 -30.3486 -30.3486 -30.3264 -30.3264
    -8.3482  -7.2063  -7.2062  -7.2062   4.7584   4.7584   4.7584   6.5803
     6.5803   6.5803   6.6225   7.4631   7.4631   7.4631   8.3799   8.3799
    15.6633  18.7892  18.7892  18.7893  20.2126  20.2126

          k = 0.2030 0.4061 0.0000 (  8538 PWs)   bands (ev):

   -63.5618 -63.5578 -63.5542 -63.5537 -30.3950 -30.3878 -30.3868 -30.3854
   -30.3711 -30.3674 -30.3505 -30.3494 -30.3489 -30.3411 -30.3383 -30.3294
    -8.0987  -7.6182  -7.1444  -7.0852   5.0184   5.2488   5.3538   5.4943
     6.1534   6.1653   7.1939   7.3181   7.3387   7.7026   7.8333   8.1978
    16.6710  18.2780  19.5983  19.6817  20.0853  20.1723

          k = 0.2030 0.4061 0.2030 (  8510 PWs)   bands (ev):

   -63.5610 -63.5574 -63.5545 -63.5545 -30.4026 -30.4026 -30.3962 -30.3801
   -30.3655 -30.3655 -30.3456 -30.3456 -30.3449 -30.3417 -30.3332 -30.3309
    -7.9856  -7.5469  -7.1602  -7.1602   4.7432   4.7432   4.9741   5.6554
     6.3021   6.3021   7.3363   7.4547   7.4547   7.7223   8.0520   8.0708
    16.7316  18.0781  19.1274  19.1274  20.2850  21.0181

          k = 0.2030 0.4061 0.4061 (  8499 PWs)   bands (ev):

   -63.5590 -63.5565 -63.5565 -63.5554 -30.4102 -30.4076 -30.4076 -30.3986
   -30.3573 -30.3494 -30.3494 -30.3390 -30.3380 -30.3366 -30.3366 -30.3295
    -7.7018  -7.3830  -7.3830  -7.2332   4.4365   4.5415   4.5415   4.9094
     6.6631   7.0915   7.0915   7.6799   7.7632   7.8055   7.8055   8.1174
    17.1599  18.0785  18.0785  18.4253  21.0864  21.0864

          k = 0.2030 0.4061-0.4061 (  8499 PWs)   bands (ev):

   -63.5590 -63.5565 -63.5565 -63.5554 -30.4102 -30.4076 -30.4076 -30.3986
   -30.3573 -30.3494 -30.3494 -30.3390 -30.3380 -30.3366 -30.3366 -30.3295
    -7.7018  -7.3830  -7.3830  -7.2332   4.4365   4.5415   4.5415   4.9094
     6.6631   7.0915   7.0915   7.6799   7.7632   7.8055   7.8055   8.1174
    17.1599  18.0785  18.0785  18.4253  21.0864  21.0864

          k = 0.2030 0.4061-0.2030 (  8510 PWs)   bands (ev):

   -63.5610 -63.5574 -63.5545 -63.5545 -30.4026 -30.4026 -30.3962 -30.3801
   -30.3655 -30.3655 -30.3456 -30.3456 -30.3449 -30.3417 -30.3332 -30.3309
    -7.9856  -7.5469  -7.1602  -7.1602   4.7432   4.7432   4.9741   5.6554
     6.3021   6.3021   7.3363   7.4547   7.4547   7.7223   8.0520   8.0708
    16.7316  18.0781  19.1274  19.1274  20.2850  21.0181

          k = 0.2030-0.4061-0.0000 (  8538 PWs)   bands (ev):

   -63.5618 -63.5578 -63.5542 -63.5537 -30.3950 -30.3878 -30.3868 -30.3854
   -30.3711 -30.3674 -30.3505 -30.3494 -30.3489 -30.3411 -30.3383 -30.3294
    -8.0987  -7.6182  -7.1444  -7.0852   5.0184   5.2488   5.3538   5.4943
     6.1534   6.1653   7.1939   7.3181   7.3387   7.7026   7.8333   8.1978
    16.6710  18.2780  19.5983  19.6817  20.0853  20.1723

          k = 0.2030-0.4061 0.2030 (  8510 PWs)   bands (ev):

   -63.5610 -63.5574 -63.5545 -63.5545 -30.4026 -30.4026 -30.3962 -30.3801
   -30.3655 -30.3655 -30.3456 -30.3456 -30.3449 -30.3417 -30.3332 -30.3309
    -7.9856  -7.5469  -7.1602  -7.1602   4.7432   4.7432   4.9741   5.6554
     6.3021   6.3021   7.3363   7.4547   7.4547   7.7223   8.0520   8.0708
    16.7316  18.0781  19.1274  19.1274  20.2850  21.0181

          k = 0.2030-0.4061 0.4061 (  8499 PWs)   bands (ev):

   -63.5590 -63.5565 -63.5565 -63.5554 -30.4102 -30.4076 -30.4076 -30.3986
   -30.3573 -30.3494 -30.3494 -30.3390 -30.3380 -30.3366 -30.3366 -30.3295
    -7.7018  -7.3830  -7.3830  -7.2332   4.4365   4.5415   4.5415   4.9094
     6.6631   7.0915   7.0915   7.6799   7.7632   7.8055   7.8055   8.1174
    17.1599  18.0785  18.0785  18.4253  21.0864  21.0864

          k = 0.2030-0.4061-0.4061 (  8499 PWs)   bands (ev):

   -63.5590 -63.5565 -63.5565 -63.5554 -30.4102 -30.4076 -30.4076 -30.3986
   -30.3573 -30.3494 -30.3494 -30.3390 -30.3380 -30.3366 -30.3366 -30.3295
    -7.7018  -7.3830  -7.3830  -7.2332   4.4365   4.5415   4.5415   4.9094
     6.6631   7.0915   7.0915   7.6799   7.7632   7.8055   7.8055   8.1174
    17.1599  18.0785  18.0785  18.4253  21.0864  21.0864

          k = 0.2030-0.4061-0.2030 (  8510 PWs)   bands (ev):

   -63.5610 -63.5574 -63.5545 -63.5545 -30.4026 -30.4026 -30.3962 -30.3801
   -30.3655 -30.3655 -30.3456 -30.3456 -30.3449 -30.3417 -30.3332 -30.3309
    -7.9856  -7.5469  -7.1602  -7.1602   4.7432   4.7432   4.9741   5.6554
     6.3021   6.3021   7.3363   7.4547   7.4547   7.7223   8.0520   8.0708
    16.7316  18.0781  19.1274  19.1274  20.2850  21.0181

          k = 0.2030-0.2030-0.0000 (  8512 PWs)   bands (ev):

   -63.5650 -63.5545 -63.5545 -63.5534 -30.4005 -30.4005 -30.3996 -30.3726
   -30.3584 -30.3584 -30.3527 -30.3527 -30.3513 -30.3454 -30.3294 -30.3238
    -8.4875  -7.2343  -7.2343  -7.0812   4.7461   4.7461   4.7990   6.2043
     6.9790   6.9790   7.2463   7.2601   7.2601   7.3689   8.2848   8.5053
    15.2751  18.7667  18.8378  18.8378  19.4779  19.4779

          k = 0.2030-0.2030 0.2030 (  8517 PWs)   bands (ev):

   -63.5639 -63.5545 -63.5545 -63.5545 -30.4012 -30.4012 -30.4012 -30.3626
   -30.3626 -30.3626 -30.3587 -30.3486 -30.3486 -30.3486 -30.3264 -30.3264
    -8.3482  -7.2063  -7.2062  -7.2062   4.7584   4.7584   4.7584   6.5803
     6.5803   6.5803   6.6225   7.4631   7.4631   7.4631   8.3799   8.3799
    15.6633  18.7892  18.7892  18.7893  20.2126  20.2126

          k = 0.2030-0.2030 0.4061 (  8510 PWs)   bands (ev):

   -63.5610 -63.5574 -63.5545 -63.5545 -30.4026 -30.4026 -30.3962 -30.3801
   -30.3655 -30.3655 -30.3456 -30.3456 -30.3449 -30.3417 -30.3332 -30.3309
    -7.9856  -7.5469  -7.1602  -7.1602   4.7432   4.7432   4.9741   5.6554
     6.3021   6.3021   7.3363   7.4547   7.4547   7.7223   8.0520   8.0708
    16.7316  18.0781  19.1274  19.1274  20.2850  21.0181

          k = 0.2030-0.2030-0.4061 (  8510 PWs)   bands (ev):

   -63.5610 -63.5574 -63.5545 -63.5545 -30.4026 -30.4026 -30.3962 -30.3801
   -30.3655 -30.3655 -30.3456 -30.3456 -30.3449 -30.3417 -30.3332 -30.3309
    -7.9856  -7.5469  -7.1602  -7.1602   4.7432   4.7432   4.9741   5.6554
     6.3021   6.3021   7.3363   7.4547   7.4547   7.7223   8.0520   8.0708
    16.7316  18.0781  19.1274  19.1274  20.2850  21.0181

          k = 0.2030-0.2030-0.2030 (  8517 PWs)   bands (ev):

   -63.5639 -63.5545 -63.5545 -63.5545 -30.4012 -30.4012 -30.4012 -30.3626
   -30.3626 -30.3626 -30.3587 -30.3486 -30.3486 -30.3486 -30.3264 -30.3264
    -8.3482  -7.2063  -7.2062  -7.2062   4.7584   4.7584   4.7584   6.5803
     6.5803   6.5803   6.6225   7.4631   7.4631   7.4631   8.3799   8.3799
    15.6633  18.7892  18.7892  18.7893  20.2126  20.2126

          k = 0.4061-0.0000-0.0000 (  8542 PWs)   bands (ev):

   -63.5627 -63.5582 -63.5533 -63.5533 -30.3912 -30.3912 -30.3824 -30.3749
   -30.3749 -30.3592 -30.3592 -30.3556 -30.3450 -30.3450 -30.3345 -30.3345
    -8.2222  -7.7028  -7.0489  -7.0489   5.1722   5.1722   5.3904   6.0062
     6.0062   6.5701   6.8344   6.8344   7.6591   7.6591   8.0859   8.0859
    16.3411  18.0068  19.2753  19.9385  19.9385  21.0669

          k = 0.4061-0.0000 0.2030 (  8538 PWs)   bands (ev):

   -63.5618 -63.5578 -63.5542 -63.5537 -30.3950 -30.3878 -30.3868 -30.3854
   -30.3711 -30.3674 -30.3505 -30.3494 -30.3489 -30.3411 -30.3383 -30.3294
    -8.0987  -7.6182  -7.1444  -7.0852   5.0184   5.2488   5.3538   5.4943
     6.1534   6.1653   7.1939   7.3181   7.3387   7.7026   7.8333   8.1978
    16.6710  18.2780  19.5983  19.6817  20.0853  20.1723

          k = 0.4061-0.0000 0.4061 (  8510 PWs)   bands (ev):

   -63.5594 -63.5565 -63.5565 -63.5550 -30.3952 -30.3952 -30.3950 -30.3848
   -30.3752 -30.3609 -30.3609 -30.3484 -30.3390 -30.3368 -30.3367 -30.3285
    -7.7831  -7.4155  -7.4155  -7.2094   5.0113   5.0113   5.0363   5.4481
     5.8696   6.6125   6.6125   7.2411   7.7240   7.7843   7.7843   8.1619
    17.5573  18.8050  18.8050  19.2057  20.4611  20.4611

          k = 0.4061-0.0000-0.4061 (  8510 PWs)   bands (ev):

   -63.5594 -63.5565 -63.5565 -63.5550 -30.3952 -30.3952 -30.3950 -30.3848
   -30.3752 -30.3609 -30.3609 -30.3484 -30.3390 -30.3368 -30.3367 -30.3285
    -7.7831  -7.4155  -7.4155  -7.2094   5.0113   5.0113   5.0363   5.4481
     5.8696   6.6125   6.6125   7.2411   7.7240   7.7843   7.7843   8.1619
    17.5573  18.8050  18.8050  19.2057  20.4611  20.4614

          k = 0.4061-0.0000-0.2030 (  8538 PWs)   bands (ev):

   -63.5618 -63.5578 -63.5542 -63.5537 -30.3950 -30.3878 -30.3868 -30.3854
   -30.3711 -30.3674 -30.3505 -30.3494 -30.3489 -30.3411 -30.3383 -30.3294
    -8.0987  -7.6182  -7.1444  -7.0852   5.0184   5.2488   5.3538   5.4943
     6.1534   6.1653   7.1939   7.3181   7.3387   7.7026   7.8333   8.1978
    16.6710  18.2780  19.5983  19.6817  20.0853  20.1723

          k = 0.4061 0.2030 0.0000 (  8538 PWs)   bands (ev):

   -63.5618 -63.5578 -63.5542 -63.5537 -30.3950 -30.3878 -30.3868 -30.3854
   -30.3711 -30.3674 -30.3505 -30.3494 -30.3489 -30.3411 -30.3383 -30.3294
    -8.0987  -7.6182  -7.1444  -7.0852   5.0184   5.2488   5.3538   5.4943
     6.1534   6.1653   7.1939   7.3181   7.3387   7.7026   7.8333   8.1978
    16.6710  18.2780  19.5983  19.6817  20.0853  20.1723

          k = 0.4061 0.2030 0.2030 (  8510 PWs)   bands (ev):

   -63.5610 -63.5574 -63.5545 -63.5545 -30.4026 -30.4026 -30.3962 -30.3801
   -30.3655 -30.3655 -30.3456 -30.3456 -30.3449 -30.3417 -30.3332 -30.3309
    -7.9856  -7.5469  -7.1602  -7.1602   4.7432   4.7432   4.9741   5.6554
     6.3021   6.3021   7.3363   7.4547   7.4547   7.7223   8.0520   8.0708
    16.7316  18.0781  19.1274  19.1274  20.2850  21.0181

          k = 0.4061 0.2030 0.4061 (  8499 PWs)   bands (ev):

   -63.5590 -63.5565 -63.5565 -63.5554 -30.4102 -30.4076 -30.4076 -30.3986
   -30.3573 -30.3494 -30.3494 -30.3390 -30.3380 -30.3366 -30.3366 -30.3295
    -7.7018  -7.3830  -7.3830  -7.2332   4.4365   4.5415   4.5415   4.9094
     6.6631   7.0915   7.0915   7.6799   7.7632   7.8055   7.8055   8.1174
    17.1599  18.0785  18.0785  18.4253  21.0864  21.0864

          k = 0.4061 0.2030-0.4061 (  8499 PWs)   bands (ev):

   -63.5590 -63.5565 -63.5565 -63.5554 -30.4102 -30.4076 -30.4076 -30.3986
   -30.3573 -30.3494 -30.3494 -30.3390 -30.3380 -30.3366 -30.3366 -30.3295
    -7.7018  -7.3830  -7.3830  -7.2332   4.4365   4.5415   4.5415   4.9094
     6.6631   7.0915   7.0915   7.6799   7.7632   7.8055   7.8055   8.1174
    17.1599  18.0785  18.0785  18.4253  21.0864  21.0864

          k = 0.4061 0.2030-0.2030 (  8510 PWs)   bands (ev):

   -63.5610 -63.5574 -63.5545 -63.5545 -30.4026 -30.4026 -30.3962 -30.3801
   -30.3655 -30.3655 -30.3456 -30.3456 -30.3449 -30.3417 -30.3332 -30.3309
    -7.9856  -7.5469  -7.1602  -7.1602   4.7432   4.7432   4.9741   5.6554
     6.3021   6.3021   7.3363   7.4547   7.4547   7.7223   8.0520   8.0708
    16.7316  18.0781  19.1274  19.1274  20.2850  21.0181

          k = 0.4061 0.4061 0.0000 (  8510 PWs)   bands (ev):

   -63.5594 -63.5565 -63.5565 -63.5550 -30.3952 -30.3952 -30.3950 -30.3848
   -30.3752 -30.3609 -30.3609 -30.3484 -30.3390 -30.3368 -30.3367 -30.3285
    -7.7831  -7.4155  -7.4155  -7.2094   5.0113   5.0113   5.0363   5.4481
     5.8696   6.6125   6.6125   7.2411   7.7240   7.7843   7.7844   8.1619
    17.5573  18.8050  18.8050  19.2057  20.4611  20.4614

          k = 0.4061 0.4061 0.2030 (  8499 PWs)   bands (ev):

   -63.5590 -63.5565 -63.5565 -63.5554 -30.4102 -30.4076 -30.4076 -30.3986
   -30.3573 -30.3494 -30.3494 -30.3390 -30.3380 -30.3366 -30.3366 -30.3295
    -7.7018  -7.3831  -7.3830  -7.2332   4.4365   4.5415   4.5415   4.9094
     6.6631   7.0914   7.0915   7.6799   7.7632   7.8055   7.8055   8.1174
    17.1599  18.0785  18.0785  18.4253  21.0864  21.0864

          k = 0.4061 0.4061 0.4061 (  8465 PWs)   bands (ev):

   -63.5579 -63.5565 -63.5565 -63.5565 -30.4210 -30.4210 -30.4210 -30.4161
   -30.3386 -30.3386 -30.3386 -30.3353 -30.3353 -30.3353 -30.3321 -30.3321
    -7.5114  -7.3297  -7.3297  -7.3296   4.0242   4.0242   4.0242   4.2210
     7.5986   7.5986   7.5986   7.8684   7.8684   7.8684   8.0036   8.0036
    16.8414  17.3343  17.3343  17.3343  21.6248  21.6248

          k = 0.4061 0.4061-0.4061 (  8465 PWs)   bands (ev):

   -63.5579 -63.5565 -63.5565 -63.5565 -30.4210 -30.4210 -30.4210 -30.4161
   -30.3386 -30.3386 -30.3386 -30.3353 -30.3353 -30.3353 -30.3321 -30.3321
    -7.5114  -7.3297  -7.3297  -7.3296   4.0242   4.0242   4.0242   4.2210
     7.5986   7.5986   7.5986   7.8684   7.8684   7.8684   8.0036   8.0036
    16.8414  17.3343  17.3343  17.3343  21.6248  21.6248

          k = 0.4061 0.4061-0.2030 (  8499 PWs)   bands (ev):

   -63.5590 -63.5565 -63.5565 -63.5554 -30.4102 -30.4076 -30.4076 -30.3986
   -30.3573 -30.3494 -30.3494 -30.3390 -30.3380 -30.3366 -30.3366 -30.3295
    -7.7018  -7.3831  -7.3830  -7.2332   4.4365   4.5415   4.5415   4.9094
     6.6631   7.0914   7.0915   7.6799   7.7632   7.8055   7.8055   8.1174
    17.1599  18.0785  18.0785  18.4253  21.0864  21.0864

          k = 0.4061-0.4061-0.0000 (  8510 PWs)   bands (ev):

   -63.5594 -63.5565 -63.5565 -63.5550 -30.3952 -30.3952 -30.3950 -30.3848
   -30.3752 -30.3609 -30.3609 -30.3484 -30.3390 -30.3368 -30.3367 -30.3285
    -7.7831  -7.4155  -7.4155  -7.2094   5.0113   5.0113   5.0363   5.4481
     5.8696   6.6125   6.6125   7.2411   7.7240   7.7843   7.7844   8.1619
    17.5573  18.8050  18.8050  19.2057  20.4611  20.9873

          k = 0.4061-0.4061 0.2030 (  8499 PWs)   bands (ev):

   -63.5590 -63.5565 -63.5565 -63.5554 -30.4102 -30.4076 -30.4076 -30.3986
   -30.3573 -30.3494 -30.3494 -30.3390 -30.3380 -30.3366 -30.3366 -30.3295
    -7.7018  -7.3831  -7.3830  -7.2332   4.4365   4.5415   4.5415   4.9094
     6.6631   7.0914   7.0915   7.6799   7.7632   7.8055   7.8055   8.1174
    17.1599  18.0785  18.0785  18.4253  21.0864  21.0864

          k = 0.4061-0.4061 0.4061 (  8465 PWs)   bands (ev):

   -63.5579 -63.5565 -63.5565 -63.5565 -30.4210 -30.4210 -30.4210 -30.4161
   -30.3386 -30.3386 -30.3386 -30.3353 -30.3353 -30.3353 -30.3321 -30.3321
    -7.5114  -7.3297  -7.3297  -7.3296   4.0242   4.0242   4.0242   4.2210
     7.5986   7.5986   7.5986   7.8684   7.8684   7.8684   8.0036   8.0036
    16.8414  17.3343  17.3343  17.3343  21.6248  21.6248

          k = 0.4061-0.4061-0.4061 (  8465 PWs)   bands (ev):

   -63.5579 -63.5565 -63.5565 -63.5565 -30.4210 -30.4210 -30.4210 -30.4161
   -30.3386 -30.3386 -30.3386 -30.3353 -30.3353 -30.3353 -30.3321 -30.3321
    -7.5114  -7.3297  -7.3297  -7.3296   4.0242   4.0242   4.0242   4.2210
     7.5986   7.5986   7.5986   7.8684   7.8684   7.8684   8.0036   8.0036
    16.8414  17.3343  17.3343  17.3343  21.6248  21.6248

          k = 0.4061-0.4061-0.2030 (  8499 PWs)   bands (ev):

   -63.5590 -63.5565 -63.5565 -63.5554 -30.4102 -30.4076 -30.4076 -30.3986
   -30.3573 -30.3494 -30.3494 -30.3390 -30.3380 -30.3366 -30.3366 -30.3295
    -7.7018  -7.3831  -7.3830  -7.2332   4.4365   4.5415   4.5415   4.9094
     6.6631   7.0914   7.0915   7.6799   7.7632   7.8055   7.8055   8.1174
    17.1599  18.0785  18.0785  18.4253  21.0864  21.0864

          k = 0.4061-0.2030-0.0000 (  8538 PWs)   bands (ev):

   -63.5618 -63.5578 -63.5542 -63.5537 -30.3950 -30.3878 -30.3868 -30.3854
   -30.3711 -30.3674 -30.3505 -30.3494 -30.3489 -30.3411 -30.3383 -30.3294
    -8.0987  -7.6182  -7.1444  -7.0852   5.0184   5.2488   5.3538   5.4943
     6.1534   6.1653   7.1939   7.3181   7.3387   7.7026   7.8333   8.1978
    16.6710  18.2780  19.5983  19.6817  20.0853  20.1723

          k = 0.4061-0.2030 0.2030 (  8510 PWs)   bands (ev):

   -63.5610 -63.5574 -63.5545 -63.5545 -30.4026 -30.4026 -30.3962 -30.3801
   -30.3655 -30.3655 -30.3456 -30.3456 -30.3449 -30.3417 -30.3332 -30.3309
    -7.9856  -7.5469  -7.1602  -7.1602   4.7432   4.7432   4.9741   5.6554
     6.3021   6.3021   7.3363   7.4547   7.4547   7.7223   8.0520   8.0708
    16.7316  18.0781  19.1274  19.1274  20.2850  21.0181

          k = 0.4061-0.2030 0.4061 (  8499 PWs)   bands (ev):

   -63.5590 -63.5565 -63.5565 -63.5554 -30.4102 -30.4076 -30.4076 -30.3986
   -30.3573 -30.3494 -30.3494 -30.3390 -30.3380 -30.3366 -30.3366 -30.3295
    -7.7018  -7.3830  -7.3830  -7.2332   4.4365   4.5415   4.5415   4.9094
     6.6631   7.0915   7.0915   7.6799   7.7632   7.8055   7.8055   8.1174
    17.1599  18.0785  18.0785  18.4253  21.0864  21.0864

          k = 0.4061-0.2030-0.4061 (  8499 PWs)   bands (ev):

   -63.5590 -63.5565 -63.5565 -63.5554 -30.4102 -30.4076 -30.4076 -30.3986
   -30.3573 -30.3494 -30.3494 -30.3390 -30.3380 -30.3366 -30.3366 -30.3295
    -7.7018  -7.3830  -7.3830  -7.2332   4.4365   4.5415   4.5415   4.9094
     6.6631   7.0915   7.0915   7.6799   7.7632   7.8055   7.8055   8.1174
    17.1599  18.0785  18.0785  18.4253  21.0864  21.0864

          k = 0.4061-0.2030-0.2030 (  8510 PWs)   bands (ev):

   -63.5610 -63.5574 -63.5545 -63.5545 -30.4026 -30.4026 -30.3962 -30.3801
   -30.3655 -30.3655 -30.3456 -30.3456 -30.3449 -30.3417 -30.3332 -30.3309
    -7.9856  -7.5469  -7.1602  -7.1602   4.7432   4.7432   4.9741   5.6554
     6.3021   6.3021   7.3363   7.4547   7.4547   7.7223   8.0520   8.0708
    16.7316  18.0781  19.1274  19.1274  20.2850  21.0181

     the Fermi energy is    11.0778 ev

!    total energy              =    -608.50867405 Ry
     estimated scf accuracy    <       0.00000004 Ry
     smearing contrib. (-TS)   =      -0.00000000 Ry
     internal energy E=F+TS    =    -608.50867405 Ry

     The total energy is F=E-TS. E is the sum of the following terms:
     one-electron contribution =    -288.41103150 Ry
     hartree contribution      =     163.11587135 Ry
     xc contribution           =     -98.18344794 Ry
     ewald contribution        =    -384.91648559 Ry
     DFT-D3 Dispersion         =      -0.11358037 Ry

     convergence has been achieved in   9 iterations

     Forces acting on atoms (cartesian axes, Ry/au):

     atom    1 type  1   force =    -0.00000005   -0.00000020    0.00000006
     atom    2 type  1   force =     0.00000001   -0.00000015    0.00000002
     atom    3 type  1   force =     0.00000007    0.00000001    0.00000003
     atom    4 type  1   force =     0.00000002    0.00000036   -0.00000017
     atom    5 type  2   force =     0.00000006   -0.00000010    0.00000019
     atom    6 type  2   force =     0.00000004   -0.00000055   -0.00000023
     atom    7 type  2   force =    -0.00000013    0.00000034    0.00000009
     atom    8 type  2   force =    -0.00000002    0.00000027    0.00000001

     Total force =     0.000001     Total SCF correction =     0.000005
     SCF correction compared to forces is large: reduce conv_thr to get better values


     Computing stress (Cartesian axis) and pressure

          total   stress  (Ry/bohr**3)                   (kbar)     P=       92.67
   0.00062997   0.00000000  -0.00000000           92.67        0.00       -0.00
   0.00000000   0.00062997   0.00000000            0.00       92.67        0.00
  -0.00000000   0.00000000   0.00062997           -0.00        0.00       92.67


     number of scf cycles    =   2
     number of bfgs steps    =   1

     enthalpy old            =    -608.1737801615 Ry
     enthalpy new            =    -608.1812572475 Ry

     CASE: enthalpy_new < enthalpy_old

     new trust radius        =       0.0058582817 bohr
     new conv_thr            =       0.0000000100 Ry

     new unit-cell volume =    479.72089 a.u.^3 (    71.08730 Ang^3 )
     density =      3.76587 g/cm^3

CELL_PARAMETERS (angstrom)
   4.142514594   0.000000113   0.000000002
   0.000000113   4.142513927  -0.000000049
   0.000000002  -0.000000049   4.142514161

ATOMIC_POSITIONS (angstrom)
Mg            0.0000000714        0.0000002254       -0.0000000979
Mg            0.0000000944        2.0712571234        2.0712570573
Mg            2.0712572682        0.0000000393        2.0712570028
Mg            2.0712573271        2.0712566406        0.0000001504
O             2.0712572837        2.0712569767        2.0712568830
O             2.0712573630        0.0000001328       -0.0000000476
O            -0.0000000773        2.0712569160        0.0000000545
O             0.0000000872       -0.0000000735        2.0712572253


     NEW-OLD atomic charge density approx. for the potential
     extrapolated charge   63.74308, renormalised to   64.00000

     total cpu time spent up to now is      122.5 secs

     Self-consistent Calculation

     iteration #  1     ecut=   100.00 Ry     beta= 0.50
     Davidson diagonalization with overlap
     ethr =  1.00E-06,  avg # of iterations =  2.0

     total cpu time spent up to now is      131.9 secs

     total energy              =    -608.50535664 Ry
     estimated scf accuracy    <       0.00117601 Ry

     iteration #  2     ecut=   100.00 Ry     beta= 0.50
     Davidson diagonalization with overlap
     ethr =  1.84E-06,  avg # of iterations =  3.1

     total cpu time spent up to now is      138.4 secs

     total energy              =    -608.50746579 Ry
     estimated scf accuracy    <       0.00152287 Ry

     iteration #  3     ecut=   100.00 Ry     beta= 0.50
     Davidson diagonalization with overlap
     ethr =  1.84E-06,  avg # of iterations =  2.0

     total cpu time spent up to now is      142.7 secs

     total energy              =    -608.50744431 Ry
     estimated scf accuracy    <       0.00035737 Ry

     iteration #  4     ecut=   100.00 Ry     beta= 0.50
     Davidson diagonalization with overlap
     ethr =  5.58E-07,  avg # of iterations =  1.0

     total cpu time spent up to now is      146.8 secs

     total energy              =    -608.50740693 Ry
     estimated scf accuracy    <       0.00011552 Ry

     iteration #  5     ecut=   100.00 Ry     beta= 0.50
     Davidson diagonalization with overlap
     ethr =  1.81E-07,  avg # of iterations =  2.0

     total cpu time spent up to now is      151.2 secs

     total energy              =    -608.50741217 Ry
     estimated scf accuracy    <       0.00001083 Ry

     iteration #  6     ecut=   100.00 Ry     beta= 0.50
     Davidson diagonalization with overlap
     ethr =  1.69E-08,  avg # of iterations =  2.0

     total cpu time spent up to now is      155.9 secs

     total energy              =    -608.50741406 Ry
     estimated scf accuracy    <       0.00000029 Ry

     iteration #  7     ecut=   100.00 Ry     beta= 0.50
     Davidson diagonalization with overlap
     ethr =  4.59E-10,  avg # of iterations =  1.7

     total cpu time spent up to now is      160.2 secs

     total energy              =    -608.50741377 Ry
     estimated scf accuracy    <       0.00000076 Ry

     iteration #  8     ecut=   100.00 Ry     beta= 0.50
     Davidson diagonalization with overlap
     ethr =  4.59E-10,  avg # of iterations =  2.1

     total cpu time spent up to now is      165.3 secs

     total energy              =    -608.50741372 Ry
     estimated scf accuracy    <       0.00000014 Ry

     iteration #  9     ecut=   100.00 Ry     beta= 0.50
     Davidson diagonalization with overlap
     ethr =  2.25E-10,  avg # of iterations =  2.0

     total cpu time spent up to now is      170.7 secs

     End of self-consistent calculation

          k = 0.0000 0.0000 0.0000 (  8409 PWs)   bands (ev):

   -63.5022 -63.4875 -63.4875 -63.4875 -30.3458 -30.3458 -30.3458 -30.2922
   -30.2922 -30.2922 -30.2922 -30.2922 -30.2922 -30.2577 -30.2577 -30.2577
    -8.7608  -7.0723  -7.0723  -7.0723   4.4425   4.4425   4.4425   7.2808
     7.2808   7.2808   7.2808   7.2808   7.2808   8.6837   8.6837   8.6837
    13.9564  17.9758  17.9758  19.2536  19.2536  19.2536

          k =-0.0000 0.0000 0.2033 (  8501 PWs)   bands (ev):

   -63.5008 -63.4889 -63.4875 -63.4875 -30.3406 -30.3406 -30.3385 -30.2973
   -30.2973 -30.2931 -30.2931 -30.2889 -30.2889 -30.2672 -30.2610 -30.2610
    -8.6037  -7.2362  -7.0468  -7.0468   4.6410   4.6410   4.6877   6.8939
     6.8939   7.1230   7.1230   7.3937   7.3937   7.9639   8.5235   8.5235
    14.7744  18.3170  18.6109  18.6109  19.1105  19.8533

          k =-0.0000 0.0000 0.4066 (  8542 PWs)   bands (ev):

   -63.4971 -63.4926 -63.4875 -63.4875 -30.3272 -30.3272 -30.3182 -30.3106
   -30.3106 -30.2946 -30.2946 -30.2910 -30.2802 -30.2802 -30.2696 -30.2696
[...]
   -30.2926 -30.2846 -30.2846 -30.2740 -30.2730 -30.2715 -30.2715 -30.2643
    -7.6626  -7.3414  -7.3414  -7.1903   4.4724   4.5785   4.5785   4.9489
     6.7062   7.1362   7.1362   7.7270   7.8102   7.8527   7.8527   8.1657
    17.2464  18.1620  18.1620  18.5065  21.1737  21.1738

          k = 0.2033 0.4066-0.4066 (  8095 PWs)   bands (ev):

   -63.4930 -63.4905 -63.4905 -63.4894 -30.3464 -30.3438 -30.3438 -30.3346
   -30.2926 -30.2846 -30.2846 -30.2740 -30.2730 -30.2715 -30.2715 -30.2643
    -7.6626  -7.3414  -7.3414  -7.1903   4.4724   4.5785   4.5785   4.9489
     6.7062   7.1362   7.1362   7.7270   7.8102   7.8527   7.8527   8.1657
    17.2464  18.1620  18.1620  18.5065  21.1737  21.1737

          k = 0.2033 0.4066-0.2033 (  8077 PWs)   bands (ev):

   -63.4951 -63.4914 -63.4885 -63.4885 -30.3387 -30.3387 -30.3321 -30.3158
   -30.3010 -30.3010 -30.2807 -30.2807 -30.2800 -30.2767 -30.2681 -30.2657
    -7.9488  -7.5067  -7.1169  -7.1169   4.7800   4.7800   5.0134   5.6985
     6.3439   6.3439   7.3820   7.5009   7.5009   7.7699   8.1005   8.1198
    16.8224  18.1659  19.2074  19.2074  20.3616  21.1065

          k = 0.2033-0.4066-0.0000 (  8102 PWs)   bands (ev):

   -63.4959 -63.4918 -63.4881 -63.4877 -30.3310 -30.3236 -30.3226 -30.3212
   -30.3066 -30.3029 -30.2857 -30.2846 -30.2841 -30.2761 -30.2733 -30.2643
    -8.0628  -7.5788  -7.1012  -7.0415   5.0563   5.2894   5.3922   5.5338
     6.1987   6.2067   7.2394   7.3640   7.3850   7.7501   7.8816   8.2471
    16.7648  18.3736  19.6752  19.7466  20.1591  20.2640

          k = 0.2033-0.4066 0.2033 (  8077 PWs)   bands (ev):

   -63.4951 -63.4914 -63.4885 -63.4885 -30.3387 -30.3387 -30.3321 -30.3158
   -30.3010 -30.3010 -30.2807 -30.2807 -30.2800 -30.2767 -30.2681 -30.2657
    -7.9488  -7.5067  -7.1169  -7.1169   4.7800   4.7800   5.0134   5.6985
     6.3439   6.3439   7.3820   7.5009   7.5009   7.7699   8.1005   8.1198
    16.8224  18.1659  19.2074  19.2074  20.3616  21.1065

          k = 0.2033-0.4066 0.4066 (  8095 PWs)   bands (ev):

   -63.4930 -63.4905 -63.4905 -63.4894 -30.3464 -30.3438 -30.3438 -30.3346
   -30.2926 -30.2846 -30.2846 -30.2740 -30.2730 -30.2715 -30.2715 -30.2643
    -7.6626  -7.3414  -7.3414  -7.1903   4.4724   4.5785   4.5785   4.9489
     6.7062   7.1362   7.1362   7.7270   7.8102   7.8527   7.8527   8.1657
    17.2464  18.1620  18.1620  18.5065  21.1737  21.1737

          k = 0.2033-0.4066-0.4066 (  8095 PWs)   bands (ev):

   -63.4930 -63.4905 -63.4905 -63.4894 -30.3464 -30.3438 -30.3438 -30.3346
   -30.2926 -30.2846 -30.2846 -30.2740 -30.2730 -30.2715 -30.2715 -30.2643
    -7.6626  -7.3414  -7.3414  -7.1903   4.4724   4.5785   4.5785   4.9489
     6.7062   7.1362   7.1362   7.7270   7.8102   7.8527   7.8527   8.1657
    17.2464  18.1620  18.1620  18.5065  21.1737  21.1738

          k = 0.2033-0.4066-0.2033 (  8077 PWs)   bands (ev):

   -63.4951 -63.4914 -63.4885 -63.4885 -30.3387 -30.3387 -30.3321 -30.3158
   -30.3010 -30.3010 -30.2807 -30.2807 -30.2800 -30.2767 -30.2681 -30.2657
    -7.9488  -7.5067  -7.1169  -7.1169   4.7800   4.7800   5.0134   5.6985
     6.3439   6.3439   7.3820   7.5009   7.5009   7.7699   8.1005   8.1198
    16.8224  18.1659  19.2074  19.2074  20.3616  21.1065

          k = 0.2033-0.2033-0.0000 (  8120 PWs)   bands (ev):

   -63.4992 -63.4885 -63.4885 -63.4874 -30.3365 -30.3365 -30.3356 -30.3082
   -30.2937 -30.2937 -30.2879 -30.2879 -30.2865 -30.2805 -30.2643 -30.2585
    -8.4545  -7.1920  -7.1920  -7.0376   4.7833   4.7833   4.8356   6.2464
     7.0239   7.0239   7.2957   7.3063   7.3063   7.4153   8.3351   8.5563
    15.3681  18.8345  18.9002  18.9002  19.5759  19.5759

          k = 0.2033-0.2033 0.2033 (  8120 PWs)   bands (ev):

   -63.4981 -63.4885 -63.4885 -63.4885 -30.3372 -30.3372 -30.3372 -30.2980
   -30.2980 -30.2980 -30.2941 -30.2838 -30.2838 -30.2838 -30.2612 -30.2612
    -8.3141  -7.1636  -7.1636  -7.1635   4.7956   4.7956   4.7956   6.6235
     6.6235   6.6235   6.6697   7.5098   7.5098   7.5098   8.4302   8.4302
    15.7555  18.8622  18.8622  18.8622  20.3042  20.3042

          k = 0.2033-0.2033 0.4066 (  8077 PWs)   bands (ev):

   -63.4951 -63.4914 -63.4885 -63.4885 -30.3387 -30.3387 -30.3321 -30.3158
   -30.3010 -30.3010 -30.2807 -30.2807 -30.2800 -30.2767 -30.2681 -30.2657
    -7.9488  -7.5067  -7.1169  -7.1169   4.7800   4.7800   5.0134   5.6985
     6.3439   6.3439   7.3820   7.5009   7.5009   7.7699   8.1005   8.1198
    16.8224  18.1659  19.2074  19.2074  20.3616  21.1065

          k = 0.2033-0.2033-0.4066 (  8077 PWs)   bands (ev):

   -63.4951 -63.4914 -63.4885 -63.4885 -30.3387 -30.3387 -30.3321 -30.3158
   -30.3010 -30.3010 -30.2807 -30.2807 -30.2800 -30.2767 -30.2681 -30.2657
    -7.9488  -7.5067  -7.1169  -7.1169   4.7800   4.7800   5.0134   5.6985
     6.3439   6.3439   7.3820   7.5009   7.5009   7.7699   8.1005   8.1198
    16.8224  18.1659  19.2074  19.2074  20.3616  21.1065

          k = 0.2033-0.2033-0.2033 (  8120 PWs)   bands (ev):

   -63.4981 -63.4885 -63.4885 -63.4885 -30.3372 -30.3372 -30.3372 -30.2980
   -30.2980 -30.2980 -30.2941 -30.2838 -30.2838 -30.2838 -30.2612 -30.2612
    -8.3141  -7.1636  -7.1636  -7.1635   4.7956   4.7956   4.7956   6.6235
     6.6235   6.6235   6.6697   7.5098   7.5098   7.5098   8.4302   8.4302
    15.7555  18.8622  18.8622  18.8622  20.3042  20.3042

          k = 0.4066-0.0000-0.0000 (  8085 PWs)   bands (ev):

   -63.4968 -63.4923 -63.4872 -63.4872 -30.3271 -30.3271 -30.3181 -30.3105
   -30.3105 -30.2945 -30.2945 -30.2909 -30.2801 -30.2801 -30.2695 -30.2695
    -8.1873  -7.6641  -7.0050  -7.0050   5.2101   5.2101   5.4316   6.0470
     6.0470   6.6170   6.8790   6.8790   7.7070   7.7070   8.1355   8.1355
    16.4353  18.1031  19.3355  20.0117  20.0117  21.3081

          k = 0.4066-0.0000 0.2033 (  8102 PWs)   bands (ev):

   -63.4959 -63.4918 -63.4881 -63.4877 -30.3310 -30.3236 -30.3226 -30.3212
   -30.3066 -30.3029 -30.2857 -30.2846 -30.2841 -30.2761 -30.2733 -30.2643
    -8.0628  -7.5788  -7.1012  -7.0415   5.0563   5.2894   5.3922   5.5338
     6.1987   6.2067   7.2394   7.3640   7.3850   7.7501   7.8816   8.2471
    16.7648  18.3736  19.6752  19.7466  20.1591  20.2640

          k = 0.4066-0.0000 0.4066 (  8106 PWs)   bands (ev):

   -63.4935 -63.4905 -63.4905 -63.4890 -30.3311 -30.3311 -30.3309 -30.3206
   -30.3108 -30.2963 -30.2963 -30.2836 -30.2740 -30.2717 -30.2717 -30.2634
    -7.7447  -7.3742  -7.3742  -7.1664   5.0505   5.0505   5.0747   5.4902
     5.9097   6.6555   6.6555   7.2866   7.7709   7.8315   7.8315   8.2105
    17.6501  18.8967  18.8967  19.2895  20.5360  21.0697

          k = 0.4066-0.0000-0.4066 (  8106 PWs)   bands (ev):

   -63.4935 -63.4905 -63.4905 -63.4890 -30.3311 -30.3311 -30.3309 -30.3206
   -30.3108 -30.2963 -30.2963 -30.2836 -30.2740 -30.2717 -30.2717 -30.2634
    -7.7447  -7.3742  -7.3742  -7.1664   5.0505   5.0505   5.0747   5.4902
     5.9097   6.6555   6.6555   7.2866   7.7709   7.8315   7.8315   8.2105
    17.6501  18.8967  18.8967  19.2895  20.5360  20.5360

          k = 0.4066-0.0000-0.2033 (  8102 PWs)   bands (ev):

   -63.4959 -63.4918 -63.4881 -63.4877 -30.3310 -30.3236 -30.3226 -30.3212
   -30.3066 -30.3029 -30.2857 -30.2846 -30.2841 -30.2761 -30.2733 -30.2643
    -8.0628  -7.5788  -7.1012  -7.0415   5.0563   5.2894   5.3922   5.5338
     6.1987   6.2067   7.2394   7.3640   7.3850   7.7501   7.8816   8.2471
    16.7648  18.3736  19.6752  19.7466  20.1591  20.2640

          k = 0.4066 0.2033 0.0000 (  8102 PWs)   bands (ev):

   -63.4959 -63.4918 -63.4881 -63.4877 -30.3310 -30.3236 -30.3226 -30.3212
   -30.3066 -30.3029 -30.2857 -30.2846 -30.2841 -30.2761 -30.2733 -30.2643
    -8.0628  -7.5788  -7.1012  -7.0415   5.0563   5.2894   5.3922   5.5338
     6.1987   6.2067   7.2394   7.3640   7.3850   7.7501   7.8816   8.2471
    16.7648  18.3736  19.6752  19.7466  20.1591  20.2640

          k = 0.4066 0.2033 0.2033 (  8077 PWs)   bands (ev):

   -63.4951 -63.4914 -63.4885 -63.4885 -30.3387 -30.3387 -30.3321 -30.3158
   -30.3010 -30.3010 -30.2807 -30.2807 -30.2800 -30.2767 -30.2681 -30.2657
    -7.9488  -7.5067  -7.1169  -7.1169   4.7800   4.7800   5.0134   5.6985
     6.3439   6.3439   7.3820   7.5009   7.5009   7.7699   8.1005   8.1198
    16.8224  18.1659  19.2074  19.2074  20.3616  21.1065

          k = 0.4066 0.2033 0.4066 (  8095 PWs)   bands (ev):

   -63.4930 -63.4905 -63.4905 -63.4894 -30.3464 -30.3438 -30.3438 -30.3346
   -30.2926 -30.2846 -30.2846 -30.2740 -30.2730 -30.2715 -30.2715 -30.2643
    -7.6626  -7.3414  -7.3414  -7.1903   4.4724   4.5785   4.5785   4.9489
     6.7062   7.1362   7.1362   7.7270   7.8102   7.8527   7.8527   8.1657
    17.2464  18.1620  18.1620  18.5065  21.1737  21.1747

          k = 0.4066 0.2033-0.4066 (  8095 PWs)   bands (ev):

   -63.4930 -63.4905 -63.4905 -63.4894 -30.3464 -30.3438 -30.3438 -30.3346
   -30.2926 -30.2846 -30.2846 -30.2740 -30.2730 -30.2715 -30.2715 -30.2643
    -7.6626  -7.3414  -7.3414  -7.1903   4.4724   4.5785   4.5785   4.9489
     6.7062   7.1362   7.1362   7.7270   7.8102   7.8527   7.8527   8.1657
    17.2464  18.1620  18.1620  18.5065  21.1737  21.1737

          k = 0.4066 0.2033-0.2033 (  8077 PWs)   bands (ev):

   -63.4951 -63.4914 -63.4885 -63.4885 -30.3387 -30.3387 -30.3321 -30.3158
   -30.3010 -30.3010 -30.2807 -30.2807 -30.2800 -30.2767 -30.2681 -30.2657
    -7.9488  -7.5067  -7.1169  -7.1169   4.7800   4.7800   5.0134   5.6985
     6.3439   6.3439   7.3820   7.5009   7.5009   7.7699   8.1005   8.1198
    16.8224  18.1659  19.2074  19.2074  20.3616  21.1065

          k = 0.4066 0.4066 0.0000 (  8106 PWs)   bands (ev):

   -63.4935 -63.4905 -63.4905 -63.4890 -30.3311 -30.3311 -30.3309 -30.3206
   -30.3108 -30.2963 -30.2963 -30.2836 -30.2740 -30.2717 -30.2717 -30.2634
    -7.7447  -7.3742  -7.3742  -7.1664   5.0505   5.0505   5.0747   5.4902
     5.9097   6.6555   6.6555   7.2866   7.7709   7.8315   7.8315   8.2105
    17.6501  18.8967  18.8967  19.2895  20.5360  21.0694

          k = 0.4066 0.4066 0.2033 (  8095 PWs)   bands (ev):

   -63.4930 -63.4905 -63.4905 -63.4894 -30.3464 -30.3438 -30.3438 -30.3346
   -30.2926 -30.2846 -30.2846 -30.2740 -30.2730 -30.2715 -30.2715 -30.2643
    -7.6626  -7.3414  -7.3414  -7.1903   4.4724   4.5785   4.5785   4.9489
     6.7062   7.1362   7.1362   7.7270   7.8102   7.8527   7.8527   8.1657
    17.2464  18.1620  18.1620  18.5065  21.1737  21.1737

          k = 0.4066 0.4066 0.4066 (  8090 PWs)   bands (ev):

   -63.4919 -63.4905 -63.4905 -63.4905 -30.3574 -30.3574 -30.3574 -30.3524
   -30.2736 -30.2736 -30.2736 -30.2703 -30.2703 -30.2703 -30.2670 -30.2670
    -7.4705  -7.2873  -7.2873  -7.2873   4.0587   4.0587   4.0587   4.2570
     7.6449   7.6449   7.6449   7.9157   7.9157   7.9157   8.0514   8.0514
    16.9220  17.4137  17.4137  17.4137  21.7212  21.7212

          k = 0.4066 0.4066-0.4066 (  8090 PWs)   bands (ev):

   -63.4919 -63.4905 -63.4905 -63.4905 -30.3574 -30.3574 -30.3574 -30.3524
   -30.2736 -30.2736 -30.2736 -30.2703 -30.2703 -30.2703 -30.2670 -30.2670
    -7.4705  -7.2873  -7.2873  -7.2873   4.0587   4.0587   4.0587   4.2570
     7.6449   7.6449   7.6449   7.9157   7.9157   7.9157   8.0514   8.0514
    16.9220  17.4137  17.4137  17.4137  21.7212  21.7212

          k = 0.4066 0.4066-0.2033 (  8095 PWs)   bands (ev):

   -63.4930 -63.4905 -63.4905 -63.4894 -30.3464 -30.3438 -30.3438 -30.3346
   -30.2926 -30.2846 -30.2846 -30.2740 -30.2730 -30.2715 -30.2715 -30.2643
    -7.6626  -7.3414  -7.3414  -7.1903   4.4724   4.5785   4.5785   4.9489
     6.7062   7.1362   7.1362   7.7270   7.8102   7.8527   7.8527   8.1657
    17.2464  18.1620  18.1620  18.5065  21.1737  21.1737

          k = 0.4066-0.4066-0.0000 (  8106 PWs)   bands (ev):

   -63.4935 -63.4905 -63.4905 -63.4890 -30.3311 -30.3311 -30.3309 -30.3206
   -30.3108 -30.2963 -30.2963 -30.2836 -30.2740 -30.2717 -30.2717 -30.2634
    -7.7447  -7.3742  -7.3742  -7.1664   5.0505   5.0505   5.0747   5.4902
     5.9097   6.6555   6.6555   7.2866   7.7709   7.8315   7.8315   8.2105
    17.6501  18.8967  18.8967  19.2895  20.5360  21.0697

          k = 0.4066-0.4066 0.2033 (  8095 PWs)   bands (ev):

   -63.4930 -63.4905 -63.4905 -63.4894 -30.3464 -30.3438 -30.3438 -30.3346
   -30.2926 -30.2846 -30.2846 -30.2740 -30.2730 -30.2715 -30.2715 -30.2643
    -7.6626  -7.3414  -7.3414  -7.1903   4.4724   4.5785   4.5785   4.9489
     6.7062   7.1362   7.1362   7.7270   7.8102   7.8527   7.8527   8.1657
    17.2464  18.1620  18.1620  18.5065  21.1737  21.1737

          k = 0.4066-0.4066 0.4066 (  8090 PWs)   bands (ev):

   -63.4919 -63.4905 -63.4905 -63.4905 -30.3574 -30.3574 -30.3574 -30.3524
   -30.2736 -30.2736 -30.2736 -30.2703 -30.2703 -30.2703 -30.2670 -30.2670
    -7.4705  -7.2873  -7.2873  -7.2873   4.0587   4.0587   4.0587   4.2570
     7.6449   7.6449   7.6449   7.9157   7.9157   7.9157   8.0514   8.0514
    16.9220  17.4137  17.4137  17.4137  21.7212  21.7212

          k = 0.4066-0.4066-0.4066 (  8090 PWs)   bands (ev):

   -63.4919 -63.4905 -63.4905 -63.4905 -30.3574 -30.3574 -30.3574 -30.3524
   -30.2736 -30.2736 -30.2736 -30.2703 -30.2703 -30.2703 -30.2670 -30.2670
    -7.4705  -7.2873  -7.2873  -7.2873   4.0587   4.0587   4.0587   4.2570
     7.6449   7.6449   7.6449   7.9157   7.9157   7.9157   8.0514   8.0514
    16.9220  17.4137  17.4137  17.4137  21.7212  21.7212

          k = 0.4066-0.4066-0.2033 (  8095 PWs)   bands (ev):

   -63.4930 -63.4905 -63.4905 -63.4894 -30.3464 -30.3438 -30.3438 -30.3346
   -30.2926 -30.2846 -30.2846 -30.2740 -30.2730 -30.2715 -30.2715 -30.2643
    -7.6626  -7.3414  -7.3414  -7.1903   4.4724   4.5785   4.5785   4.9489
     6.7062   7.1362   7.1362   7.7270   7.8102   7.8527   7.8527   8.1657
    17.2464  18.1620  18.1620  18.5065  21.1737  21.1738

          k = 0.4066-0.2033-0.0000 (  8102 PWs)   bands (ev):

   -63.4959 -63.4918 -63.4881 -63.4877 -30.3310 -30.3236 -30.3226 -30.3212
   -30.3066 -30.3029 -30.2857 -30.2846 -30.2841 -30.2761 -30.2733 -30.2643
    -8.0628  -7.5788  -7.1012  -7.0415   5.0563   5.2894   5.3922   5.5338
     6.1987   6.2067   7.2394   7.3640   7.3850   7.7501   7.8816   8.2471
    16.7648  18.3736  19.6752  19.7466  20.1591  20.2640

          k = 0.4066-0.2033 0.2033 (  8077 PWs)   bands (ev):

   -63.4951 -63.4914 -63.4885 -63.4885 -30.3387 -30.3387 -30.3321 -30.3158
   -30.3010 -30.3010 -30.2807 -30.2807 -30.2800 -30.2767 -30.2681 -30.2657
    -7.9488  -7.5067  -7.1169  -7.1169   4.7800   4.7800   5.0134   5.6985
     6.3439   6.3439   7.3820   7.5009   7.5009   7.7699   8.1005   8.1198
    16.8224  18.1659  19.2074  19.2074  20.3616  21.1065

          k = 0.4066-0.2033 0.4066 (  8095 PWs)   bands (ev):

   -63.4930 -63.4905 -63.4905 -63.4894 -30.3464 -30.3438 -30.3438 -30.3346
   -30.2926 -30.2846 -30.2846 -30.2740 -30.2730 -30.2715 -30.2715 -30.2643
    -7.6626  -7.3414  -7.3414  -7.1903   4.4724   4.5785   4.5785   4.9489
     6.7062   7.1362   7.1362   7.7270   7.8102   7.8527   7.8527   8.1657
    17.2464  18.1620  18.1620  18.5065  21.1737  21.1739

          k = 0.4066-0.2033-0.4066 (  8095 PWs)   bands (ev):

   -63.4930 -63.4905 -63.4905 -63.4894 -30.3464 -30.3438 -30.3438 -30.3346
   -30.2926 -30.2846 -30.2846 -30.2740 -30.2730 -30.2715 -30.2715 -30.2643
    -7.6626  -7.3414  -7.3414  -7.1903   4.4724   4.5785   4.5785   4.9489
     6.7062   7.1362   7.1362   7.7270   7.8102   7.8527   7.8527   8.1657
    17.2464  18.1620  18.1620  18.5065  21.1737  21.1737

          k = 0.4066-0.2033-0.2033 (  8077 PWs)   bands (ev):

   -63.4951 -63.4914 -63.4885 -63.4885 -30.3387 -30.3387 -30.3321 -30.3158
   -30.3010 -30.3010 -30.2807 -30.2807 -30.2800 -30.2767 -30.2681 -30.2657
    -7.9488  -7.5067  -7.1169  -7.1169   4.7800   4.7800   5.0134   5.6985
     6.3439   6.3439   7.3820   7.5009   7.5009   7.7699   8.1005   8.1198
    16.8224  18.1659  19.2074  19.2074  20.3616  21.1065

     the Fermi energy is    11.1704 ev

!    total energy              =    -608.50741578 Ry
     estimated scf accuracy    <          1.6E-09 Ry
     smearing contrib. (-TS)   =      -0.00000000 Ry
     internal energy E=F+TS    =    -608.50741578 Ry

     The total energy is F=E-TS. E is the sum of the following terms:
     one-electron contribution =    -287.61817486 Ry
     hartree contribution      =     162.85648772 Ry
     xc contribution           =     -98.20076467 Ry
     ewald contribution        =    -385.43088618 Ry
     DFT-D3 Dispersion         =      -0.11407780 Ry

     convergence has been achieved in  10 iterations

     Forces acting on atoms (cartesian axes, Ry/au):

     atom    1 type  1   force =    -0.00000003   -0.00000014    0.00000006
     atom    2 type  1   force =    -0.00000004   -0.00000006    0.00000003
     atom    3 type  1   force =     0.00000005   -0.00000003    0.00000003
     atom    4 type  1   force =    -0.00000001    0.00000021   -0.00000011
     atom    5 type  2   force =     0.00000004   -0.00000001    0.00000011
     atom    6 type  2   force =    -0.00000004   -0.00000009    0.00000001
     atom    7 type  2   force =     0.00000005    0.00000006   -0.00000004
     atom    8 type  2   force =    -0.00000002    0.00000006   -0.00000008

     Total force =     0.000000     Total SCF correction =     0.000000
     SCF correction compared to forces is large: reduce conv_thr to get better values


     Computing stress (Cartesian axis) and pressure

          total   stress  (Ry/bohr**3)                   (kbar)     P=      100.19
   0.00068106  -0.00000000   0.00000000          100.19       -0.00        0.00
  -0.00000000   0.00068106   0.00000000           -0.00      100.19        0.00
   0.00000000   0.00000000   0.00068106            0.00        0.00      100.19

 
     init_run     :      3.37s CPU      3.56s WALL (       2 calls)
     electrons    :    194.54s CPU    203.59s WALL (       4 calls)
     update_pot   :      0.89s CPU      0.91s WALL (       2 calls)
     forces       :     20.58s CPU     20.73s WALL (       4 calls)
     stress       :     23.45s CPU     23.67s WALL (       4 calls)

     Called by init_run:
     wfcinit      :      2.67s CPU      2.84s WALL (       2 calls)
     potinit      :      0.27s CPU      0.27s WALL (       2 calls)
     hinit0       :      0.39s CPU      0.40s WALL (       2 calls)

     Called by electrons:
     c_bands      :    155.00s CPU    162.41s WALL (      36 calls)
     sum_band     :     23.68s CPU     25.13s WALL (      36 calls)
     v_of_rho     :      0.35s CPU      0.42s WALL (      40 calls)
     mix_rho      :      0.06s CPU      0.11s WALL (      36 calls)

     Called by c_bands:
     init_us_2    :      2.15s CPU      2.54s WALL (    5166 calls)
     cegterg      :    149.29s CPU    155.86s WALL (    2268 calls)

     Called by *egterg:
     cdiaghg      :     16.21s CPU     16.56s WALL (    8840 calls)
     h_psi        :    121.18s CPU    127.17s WALL (    9092 calls)
     g_psi        :      0.38s CPU      0.40s WALL (    6698 calls)

     Called by h_psi:
     h_psi:calbec :      5.33s CPU      5.65s WALL (    9092 calls)
     vloc_psi     :    111.27s CPU    116.81s WALL (    9092 calls)
     add_vuspsi   :      3.81s CPU      3.91s WALL (    9092 calls)

     General routines
     calbec       :      6.24s CPU      6.59s WALL (   10352 calls)
     fft          :      0.39s CPU      0.43s WALL (     498 calls)
     ffts         :      0.02s CPU      0.02s WALL (      36 calls)
     fftw         :    125.74s CPU    131.95s WALL (  543358 calls)
 
     Parallel routines
     fft_scatt_xy :     14.61s CPU     15.28s WALL (  543892 calls)
     fft_scatt_yz :     73.74s CPU     77.62s WALL (  543892 calls)
 
     PWSCF        :   4m 3.00s CPU   4m12.68s WALL

 
   This run was terminated on:  13:39: 3   4Feb2024            

=------------------------------------------------------------------------------=
   JOB DONE.
=------------------------------------------------------------------------------=
