# total energy = -24714.5941188 eV	

CRYSTAL	
PRIMVEC	
		10.20051972		0.00000000		0.00000000	
		0.00000000		8.72659562		0.00000000	
		0.00000000		0.00000000		5.32170294	
PRIMCOORD
   40 1	
Mg		0.00000000		7.89582654		1.33042523		0.00000000		 0.00015233		0.00000000	
Mg		0.00000000		0.83077215		3.99127466		0.00000000		-0.00015233		0.00000000	
Mg		5.10025986		5.19407200		3.99127466		0.00000000		-0.00015233		0.00000000	
Mg		5.10025986		3.53252770		1.33042523		0.00000000		 0.00015233		0.00000000	
Mg		0.00000000		2.30993115		1.33042523		0.00000000		 0.00090574		0.00000000	
Mg		0.00000000		6.41666855		3.99127466		0.00000000		-0.00090574		0.00000000	
Mg		5.10025986		2.05336870		3.99127466		0.00000000		-0.00090574		0.00000000	
Mg		5.10025986		6.67323100		1.33042523		0.00000000		 0.00090574		0.00000000	
Si		2.97651165		0.79935659		0.35442522		 0.00017038		-0.00061317		 0.00012743	
Si		7.22400807		7.92724312		4.96727467		-0.00017038		 0.00061317		-0.00012743	
Si		2.12374821		3.56394326		3.01527465		-0.00017038		 0.00061317		 0.00012743	
Si		8.07677152		5.16265542		2.30642523		 0.00017038		-0.00061317		-0.00012743	
Si		7.22400807		0.79935659		2.30642523		-0.00017038		-0.00061317		-0.00012743	
Si		2.97651165		7.92724312		3.01527465		 0.00017038		 0.00061317		 0.00012743	
Si		8.07677152		3.56394326		4.96727467		 0.00017038		 0.00061317		-0.00012743	
Si		2.12374821		5.16265542		0.35442522		-0.00017038		-0.00061317		 0.00012743	
O		1.19652096		0.81680968		0.42147935		 0.00011385		 0.00028945		 0.00069671	
O		9.00399876		7.90979003		4.90022053		-0.00011385		-0.00028945		-0.00069671	
O		3.90373890		3.54649018		3.08232879		-0.00011385		-0.00028945		 0.00069671	
O		6.29678082		5.18010851		2.23937110		 0.00011385		 0.00028945		-0.00069671	
O		9.00399876		0.81680968		2.23937110		-0.00011385		 0.00028945		-0.00069671	
O		1.19652096		7.90979003		3.08232879		 0.00011385		-0.00028945		 0.00069671	
O		6.29678082		3.54649018		4.90022053		 0.00011385		-0.00028945		-0.00069671	
O		3.90373890		5.18010851		0.42147935		-0.00011385		 0.00028945		 0.00069671	
O		3.84253578		2.18688636		0.37251890		-0.00041771		-0.00030591		-0.00050185	
O		6.35798394		6.53971334		4.94918098		 0.00041771		 0.00030591		 0.00050185	
O		1.25772408		2.17641349		3.03336935		 0.00041771		 0.00030591		-0.00050185	
O		8.94279564		6.55018622		2.28833053		-0.00041771		-0.00030591		 0.00050185	
O		6.35798394		2.18688636		2.28833053		 0.00041771		-0.00030591		 0.00050185	
O		3.84253578		6.53971334		3.03336935		-0.00041771		 0.00030591		-0.00050185	
O		8.94279564		2.17641349		4.94918098		-0.00041771		 0.00030591		 0.00050185	
O		1.25772408		6.55018622		0.37251890		 0.00041771		-0.00030591		-0.00050185	
O		3.57222201		8.50232598		1.53903605		-0.00010927		-0.00048727		-0.00015674	
O		6.62829772		0.22427271		3.78266383		 0.00010927		 0.00048727		 0.00015674	
O		1.52803785		4.58757256		4.19988549		 0.00010927		 0.00048727		-0.00015674	
O		8.67248187		4.13902613		1.12181440		-0.00010927		-0.00048727		 0.00015674	
O		6.62829772		8.50232598		1.12181440		 0.00010927		-0.00048727		 0.00015674	
O		3.57222201		0.22427271		4.19988549		-0.00010927		 0.00048727		-0.00015674	
O		8.67248187		4.58757256		3.78266383		-0.00010927		 0.00048727		 0.00015674	
O		1.52803785		4.13902613		1.53903605		 0.00010927		-0.00048727		-0.00015674	
