# total energy = -24715.5247821 eV	

CRYSTAL	
PRIMVEC	
		9.96868984		0.00000000		0.00000000	
		0.00000000		8.72660105		0.00000000	
		0.00000000		0.00000000		5.32169535	
PRIMCOORD
   40 1	
Mg		0.00000000		7.89582639		1.33042533		0.00000000		-0.00011499		0.00000000	
Mg		0.00000000		0.83077167		3.99127500		0.00000000		 0.00011499		0.00000000	
Mg		4.98434492		5.19407220		3.99127500		-0.00000000		 0.00011499		-0.00000000	
Mg		4.98434492		3.53252786		1.33042533		-0.00000000		-0.00011499		0.00000000	
Mg		0.00000000		2.30993085		1.33042533		0.00000000		 0.00068167		0.00000000	
Mg		0.00000000		6.41666920		3.99127500		0.00000000		-0.00068167		0.00000000	
Mg		4.98434492		2.05336868		3.99127500		0.00000000		-0.00068167		-0.00000000	
Mg		4.98434492		6.67323138		1.33042533		0.00000000		 0.00068167		0.00000000	
Si		2.90886369		0.79935734		0.35442480		-0.00016084		 0.00037275		 0.00025728	
Si		7.05982614		7.92724272		4.96727453		 0.00016084		-0.00037275		-0.00025728	
Si		2.07548122		3.56394319		3.01527447		 0.00016084		-0.00037275		 0.00025728	
Si		7.89320861		5.16265587		2.30642486		-0.00016084		 0.00037275		-0.00025728	
Si		7.05982614		0.79935734		2.30642486		 0.00016084		 0.00037275		-0.00025728	
Si		2.90886369		7.92724272		3.01527447		-0.00016084		-0.00037275		 0.00025728	
Si		7.89320861		3.56394319		4.96727453		-0.00016084		-0.00037275		-0.00025728	
Si		2.07548122		5.16265587		0.35442480		 0.00016084		 0.00037275		 0.00025728	
O		1.16932732		0.81680952		0.42147920		-0.00009017		-0.00012768		 0.00037409	
O		8.79936252		7.90978953		4.90022114		 0.00009017		 0.00012768		-0.00037409	
O		3.81501760		3.54649001		3.08232887		 0.00009017		 0.00012768		 0.00037409	
O		6.15367224		5.18010905		2.23937047		-0.00009017		-0.00012768		-0.00037409	
O		8.79936252		0.81680952		2.23937047		 0.00009017		-0.00012768		-0.00037409	
O		1.16932732		7.90978953		3.08232887		-0.00009017		 0.00012768		 0.00037409	
O		6.15367224		3.54649001		4.90022114		-0.00009017		 0.00012768		-0.00037409	
O		3.81501760		5.18010905		0.42147920		 0.00009017		-0.00012768		 0.00037409	
O		3.75520546		2.18688632		0.37251897		 0.00038960		 0.00005213		-0.00043262	
O		6.21348437		6.53971374		4.94918136		-0.00038960		-0.00005213		 0.00043262	
O		1.22913946		2.17641421		3.03336864		-0.00038960		-0.00005213		-0.00043262	
O		8.73955038		6.55018585		2.28833070		 0.00038960		 0.00005213		 0.00043262	
O		6.21348437		2.18688632		2.28833070		-0.00038960		 0.00005213		 0.00043262	
O		3.75520546		6.53971374		3.03336864		 0.00038960		-0.00005213		-0.00043262	
O		8.73955038		2.17641421		4.94918136		 0.00038960		-0.00005213		 0.00043262	
O		1.22913946		6.55018585		0.37251897		-0.00038960		 0.00005213		-0.00043262	
O		3.49103518		8.50232547		1.53903612		 0.00015072		-0.00037784		-0.00014809	
O		6.47765466		0.22427259		3.78266422		-0.00015072		 0.00037784		 0.00014809	
O		1.49330974		4.58757312		4.19988579		-0.00015072		 0.00037784		-0.00014809	
O		8.47538010		4.13902594		1.12181355		 0.00015072		-0.00037784		 0.00014809	
O		6.47765466		8.50232547		1.12181355		-0.00015072		-0.00037784		 0.00014809	
O		3.49103518		0.22427259		4.19988579		 0.00015072		 0.00037784		-0.00014809	
O		8.47538010		4.58757312		3.78266422		 0.00015072		 0.00037784		 0.00014809	
O		1.49330974		4.13902594		1.53903612		-0.00015072		-0.00037784		-0.00014809	
