# total energy = -24712.3701309 eV	

CRYSTAL	
PRIMVEC	
		8.34587958		0.00000000		0.00000000	
		0.00000000		8.72660191		0.00000000	
		0.00000000		0.00000000		5.32170004	
PRIMCOORD
   40 1	
Mg		0.00000000		7.89582635		1.33042501		0.00000000		 0.00056486		0.00000000	
Mg		0.00000000		0.83077222		3.99127503		0.00000000		-0.00056486		0.00000000	
Mg		4.17293979		5.19407151		3.99127503		0.00000000		-0.00056486		-0.00000000	
Mg		4.17293979		3.53252790		1.33042501		0.00000000		 0.00056486		-0.00000000	
Mg		0.00000000		2.30993082		1.33042501		0.00000000		-0.00085509		0.00000000	
Mg		0.00000000		6.41666859		3.99127503		0.00000000		 0.00085509		0.00000000	
Mg		4.17293979		2.05336930		3.99127503		0.00000000		 0.00085509		0.00000000	
Mg		4.17293979		6.67323094		1.33042501		0.00000000		-0.00085509		0.00000000	
Si		2.43532766		0.79935666		0.35442530		-0.00033704		-0.00035738		 0.00014634	
Si		5.91055192		7.92724275		4.96727474		 0.00033704		 0.00035738		-0.00014634	
Si		1.73761213		3.56394263		3.01527449		 0.00033704		 0.00035738		 0.00014634	
Si		6.60826745		5.16265595		2.30642472		-0.00033704		-0.00035738		-0.00014634	
Si		5.91055192		0.79935666		2.30642472		 0.00033704		-0.00035738		-0.00014634	
Si		2.43532766		7.92724275		3.01527449		-0.00033704		 0.00035738		 0.00014634	
Si		6.60826745		3.56394263		4.96727474		-0.00033704		 0.00035738		-0.00014634	
Si		1.73761213		5.16265595		0.35442530		 0.00033704		-0.00035738		 0.00014634	
O		0.97897167		0.81680957		0.42147860		-0.00034352		-0.00042746		-0.00060180	
O		7.36690874		7.90978985		4.90022060		 0.00034352		 0.00042746		 0.00060180	
O		3.19396812		3.54648972		3.08232862		 0.00034352		 0.00042746		-0.00060180	
O		5.15191146		5.18010885		2.23937058		-0.00034352		-0.00042746		 0.00060180	
O		7.36690874		0.81680957		2.23937058		 0.00034352		-0.00042746		 0.00060180	
O		0.97897167		7.90978985		3.08232862		-0.00034352		 0.00042746		-0.00060180	
O		5.15191146		3.54648972		4.90022060		-0.00034352		 0.00042746		 0.00060180	
O		3.19396812		5.18010885		0.42147860		 0.00034352		-0.00042746		-0.00060180	
O		3.14389284		2.18688585		0.37251917		-0.00036265		-0.00030844		-0.00071302	
O		5.20198674		6.53971356		4.94918087		 0.00036265		 0.00030844		 0.00071302	
O		1.02904695		2.17641427		3.03336919		 0.00036265		 0.00030844		-0.00071302	
O		7.31683263		6.55018597		2.28833085		-0.00036265		-0.00030844		 0.00071302	
O		5.20198674		2.18688585		2.28833085		 0.00036265		-0.00030844		 0.00071302	
O		3.14389284		6.53971356		3.03336919		-0.00036265		 0.00030844		-0.00071302	
O		7.31683263		2.17641427		4.94918087		-0.00036265		 0.00030844		 0.00071302	
O		1.02904695		6.55018597		0.37251917		 0.00036265		-0.00030844		-0.00071302	
O		2.92272703		8.50232560		1.53903611		-0.00062926		 0.00006845		 0.00022116	
O		5.42315255		0.22427298		3.78266393		 0.00062926		-0.00006845		-0.00022116	
O		1.25021276		4.58757310		4.19988613		 0.00062926		-0.00006845		 0.00022116	
O		7.09566682		4.13902547		1.12181391		-0.00062926		 0.00006845		-0.00022116	
O		5.42315255		8.50232560		1.12181391		 0.00062926		 0.00006845		-0.00022116	
O		2.92272703		0.22427298		4.19988613		-0.00062926		-0.00006845		 0.00022116	
O		7.09566682		4.58757310		3.78266393		-0.00062926		-0.00006845		-0.00022116	
O		1.25021276		4.13902547		1.53903611		 0.00062926		 0.00006845		 0.00022116	
