# total energy = -18275.1798849 eV	

CRYSTAL	
PRIMVEC	
		5.33600010		0.00000000		0.00000000	
		-2.66800005		4.62110949		0.00000000	
		0.00000000		0.00000000		13.88330111	
PRIMCOORD
   28 1	
Mg		1.77155203		0.00000000		3.03766586		 0.00008406		0.00000000		 0.00004905	
Mg		-0.88577602		1.53420888		3.03766586		-0.00004203		 0.00007279		 0.00004905	
Mg		1.78222403		3.08690220		3.03766586		-0.00004203		-0.00007279		 0.00004905	
Mg		3.56444807		0.00000000		9.97931642		-0.00008406		0.00000000		 0.00004905	
Mg		-1.78222403		3.08690220		9.97931642		 0.00004203		-0.00007279		 0.00004905	
Mg		0.88577602		1.53420888		9.97931642		 0.00004203		 0.00007279		 0.00004905	
Si		0.00000000		3.08074126		0.40539194		-0.00000000		-0.00000000		-0.00014175	
Si		2.66800005		1.54036983		7.34704302		0.00000000		0.00000000		-0.00014175	
Si		0.00000000		3.08074126		7.34704302		0.00000000		-0.00000000		-0.00014175	
Si		2.66800005		1.54037090		0.40539194		0.00000000		0.00000000		-0.00014175	
O		0.00000000		3.08074126		1.95199208		0.00000000		-0.00000000		-0.00037781	
O		2.66800005		1.54036983		8.89364210		0.00000000		-0.00000000		-0.00037781	
O		0.00000000		3.08074126		8.89364210		-0.00000000		0.00000000		-0.00037781	
O		2.66800005		1.54037090		1.95199208		0.00000000		0.00000000		-0.00037781	
O		2.63598405		0.00000000		13.75835120		 0.00022727		-0.00000000		 0.00028096	
O		-1.31799202		2.28282889		13.75835120		-0.00011364		 0.00019682		 0.00028096	
O		1.35000803		2.33828327		13.75835120		-0.00011364		-0.00019682		 0.00028096	
O		2.70001605		0.00000000		6.81670011		-0.00022727		0.00000000		 0.00028096	
O		-1.35000803		2.33828327		6.81670011		 0.00011364		-0.00019682		 0.00028096	
O		1.31799202		2.28282889		6.81670011		 0.00011364		 0.00019682		 0.00028096	
O		3.55733305		0.00000000		3.96923597		-0.00016791		-0.00000000		-0.00001959	
O		-1.77866706		3.08074126		3.96923597		 0.00008395		-0.00014541		-0.00001959	
O		0.88933299		1.54036983		3.96923597		 0.00008395		 0.00014541		-0.00001959	
O		1.77866706		0.00000000		10.91088599		 0.00016791		-0.00000000		-0.00001959	
O		-0.88933299		1.54036983		10.91088599		-0.00008395		 0.00014541		-0.00001959	
O		1.77866706		3.08074126		10.91088599		-0.00008395		-0.00014541		-0.00001959	
O		0.00000000		0.00000000		1.99919487		0.00000000		0.00000000		 0.00010789	
O		0.00000000		0.00000000		8.94084542		0.00000000		0.00000000		 0.00010789	
