# total energy = -18274.6539142 eV	

CRYSTAL	
PRIMVEC	
		5.33600010		0.00000000		0.00000000	
		-2.66800005		4.62110949		0.00000000	
		0.00000000		0.00000000		15.71004873	
PRIMCOORD
   28 1	
Mg		1.77155203		0.00000000		3.43735895		 0.00075264		-0.00000000		 0.00001898	
Mg		-0.88577602		1.53420888		3.43735895		-0.00037632		 0.00065180		 0.00001898	
Mg		1.78222403		3.08690220		3.43735895		-0.00037632		-0.00065180		 0.00001898	
Mg		3.56444807		0.00000000		11.29238438		-0.00075264		0.00000000		 0.00001898	
Mg		-1.78222403		3.08690220		11.29238438		 0.00037632		-0.00065180		 0.00001898	
Mg		0.88577602		1.53420888		11.29238438		 0.00037632		 0.00065180		 0.00001898	
Si		0.00000000		3.08074126		0.45873326		0.00000000		0.00000000		-0.00064550	
Si		2.66800005		1.54036983		8.31375923		0.00000000		0.00000000		-0.00064550	
Si		0.00000000		3.08074126		8.31375923		0.00000000		0.00000000		-0.00064550	
Si		2.66800005		1.54037090		0.45873326		-0.00000000		-0.00000000		-0.00064550	
O		0.00000000		3.08074126		2.20883297		0.00000000		-0.00000000		-0.00061035	
O		2.66800005		1.54036983		10.06385841		0.00000000		0.00000000		-0.00061035	
O		0.00000000		3.08074126		10.06385841		0.00000000		0.00000000		-0.00061035	
O		2.66800005		1.54037090		2.20883297		0.00000000		0.00000000		-0.00061035	
O		2.63598405		0.00000000		15.56866020		-0.00000427		0.00000000		 0.00078817	
O		-1.31799202		2.28282889		15.56866020		 0.00000214		-0.00000369		 0.00078817	
O		1.35000803		2.33828327		15.56866020		 0.00000214		 0.00000369		 0.00078817	
O		2.70001605		0.00000000		7.71363530		 0.00000427		0.00000000		 0.00078817	
O		-1.35000803		2.33828327		7.71363530		-0.00000214		 0.00000369		 0.00078817	
O		1.31799202		2.28282889		7.71363530		-0.00000214		-0.00000369		 0.00078817	
O		3.55733305		0.00000000		4.49150285		-0.00062600		-0.00000000		 0.00007553	
O		-1.77866706		3.08074126		4.49150285		 0.00031300		-0.00054213		 0.00007553	
O		0.88933299		1.54036983		4.49150285		 0.00031300		 0.00054213		 0.00007553	
O		1.77866706		0.00000000		12.34652935		 0.00062600		0.00000000		 0.00007553	
O		-0.88933299		1.54036983		12.34652935		-0.00031300		 0.00054213		 0.00007553	
O		1.77866706		3.08074126		12.34652935		-0.00031300		-0.00054213		 0.00007553	
O		0.00000000		0.00000000		2.26224687		0.00000000		0.00000000		-0.00013635	
O		0.00000000		0.00000000		10.11727230		0.00000000		0.00000000		-0.00013635	
