# total energy = -18275.304847 eV	

CRYSTAL	
PRIMVEC	
		5.33600010		0.00000000		0.00000000	
		-2.66800005		4.62110949		0.00000000	
		0.00000000		0.00000000		13.51795052	
PRIMCOORD
   28 1	
Mg		1.77155203		0.00000000		2.95772725		-0.00038144		-0.00000000		 0.00093833	
Mg		-0.88577602		1.53420888		2.95772725		 0.00019072		-0.00033034		 0.00093833	
Mg		1.78222403		3.08690220		2.95772725		 0.00019072		 0.00033034		 0.00093833	
Mg		3.56444807		0.00000000		9.71670304		 0.00038144		0.00000000		 0.00093833	
Mg		-1.78222403		3.08690220		9.71670304		-0.00019072		 0.00033034		 0.00093833	
Mg		0.88577602		1.53420888		9.71670304		-0.00019072		-0.00033034		 0.00093833	
Si		0.00000000		3.08074126		0.39472420		0.00000000		0.00000000		-0.00015343	
Si		2.66800005		1.54036983		7.15370000		0.00000000		0.00000000		-0.00015343	
Si		0.00000000		3.08074126		7.15370000		0.00000000		0.00000000		-0.00015343	
Si		2.66800005		1.54037090		0.39472420		0.00000000		0.00000000		-0.00015343	
O		0.00000000		3.08074126		1.90062401		0.00000000		0.00000000		-0.00083516	
O		2.66800005		1.54036983		8.65959927		0.00000000		0.00000000		-0.00083516	
O		0.00000000		3.08074126		8.65959927		0.00000000		0.00000000		-0.00083516	
O		2.66800005		1.54037090		1.90062401		-0.00000000		0.00000000		-0.00083516	
O		2.63598405		0.00000000		13.39628918		 0.00042870		-0.00000000		 0.00052311	
O		-1.31799202		2.28282889		13.39628918		-0.00021435		 0.00037127		 0.00052311	
O		1.35000803		2.33828327		13.39628918		-0.00021435		-0.00037127		 0.00052311	
O		2.70001605		0.00000000		6.63731392		-0.00042870		0.00000000		 0.00052311	
O		-1.35000803		2.33828327		6.63731392		 0.00021435		-0.00037127		 0.00052311	
O		1.31799202		2.28282889		6.63731392		 0.00021435		 0.00037127		 0.00052311	
O		3.55733305		0.00000000		3.86478217		 0.00012704		0.00000000		-0.00076798	
O		-1.77866706		3.08074126		3.86478217		-0.00006352		 0.00011002		-0.00076798	
O		0.88933299		1.54036983		3.86478217		-0.00006352		-0.00011002		-0.00076798	
O		1.77866706		0.00000000		10.62375743		-0.00012704		-0.00000000		-0.00076798	
O		-0.88933299		1.54036983		10.62375743		 0.00006352		-0.00011002		-0.00076798	
O		1.77866706		3.08074126		10.62375743		 0.00006352		 0.00011002		-0.00076798	
O		0.00000000		0.00000000		1.94658511		0.00000000		0.00000000		-0.00010324	
O		0.00000000		0.00000000		8.70556037		0.00000000		0.00000000		-0.00010324	
