# total energy = -7174.71620406 eV	

CRYSTAL	
PRIMVEC	
		3.20586735		-0.00000622		0.00000311	
		-1.60293834		2.77637400		-0.00000311	
		0.00000311		-0.00000622		16.21514496	
PRIMCOORD
   12 1	
O		-0.00000560		1.85091589		7.07581530		 0.00000046		-0.00000038		 0.00011555	
O		1.60293368		0.92545312		9.13953910		-0.00000022		 0.00000037		-0.00001641	
O		0.00000000		1.85091060		13.98200263		-0.00000047		 0.00000039		 0.00000722	
O		1.60293119		0.92545375		2.23300540		 0.00000063		-0.00000048		-0.00013252	
O		0.00000000		0.00000000		-0.00008340		-0.00000015		 0.00000019		 0.00000124	
H		0.00000000		1.85091247		6.11529803		 0.00000005		 0.00000007		-0.00009818	
H		1.60293461		0.92545032		10.10010896		-0.00000013		 0.00000010		 0.00000138	
H		0.00000000		1.85091154		13.02053558		 0.00000002		-0.00000009		 0.00006778	
H		1.60293461		0.92545219		3.19440804		-0.00000005		 0.00000009		 0.00004878	
Mg		0.00000000		0.00000000		8.10768327		-0.00000015		-0.00000017		-0.00000371	
Mg		1.60292808		0.92545312		14.99816402		 0.00000065		-0.00000111		 0.00001360	
Mg		0.00000342		1.85091060		1.21681040		-0.00000064		 0.00000104		-0.00000472	
