# total energy = -7175.30040184 eV	

CRYSTAL	
PRIMVEC	
		3.07836249		0.00000000		0.00000000	
		-1.53918280		2.66594156		0.00000000	
		0.00000000		0.00000000		11.72750078	
PRIMCOORD
   12 1	
O		0.00000000		1.77729375		4.81202942		 0.00000001		 0.00000001		-0.00015998	
O		1.53918155		0.88864688		6.91547167		-0.00000000		 0.00000001		 0.00015234	
O		0.00000000		1.77729406		9.46076037		-0.00000003		0.00000000		-0.00004204	
O		1.53918155		0.88864688		2.26673699		-0.00000001		 0.00000001		 0.00004847	
O		0.00000000		0.00000000		0.00000000		0.00000000		 0.00000002		 0.00000002	
H		0.00000000		1.77729406		3.85017336		 0.00000001		-0.00000000		-0.00000418	
H		1.53918155		0.88864688		7.87732399		-0.00000000		0.00000000		 0.00001091	
H		0.00000000		1.77729406		8.49617229		 0.00000001		-0.00000000		 0.00016387	
H		1.53918155		0.88864688		3.23132818		-0.00000000		-0.00000000		-0.00016940	
Mg		0.00000000		0.00000000		5.86374946		-0.00000000		-0.00000001		 0.00000077	
Mg		1.53918155		0.88864719		10.51643918		 0.00000002		-0.00000002		-0.00033675	
Mg		0.00000000		1.77729375		1.21106004		0.00000000		-0.00000001		 0.00033596	
