# total energy = -41266.8637227 eV	

CRYSTAL	
PRIMVEC	
		5.12847003		0.00000000		0.00000000	
		0.00000000		11.43800107		0.00000000	
		0.00000000		0.00000000		8.25660084	
PRIMCOORD
   56 1	
Mg		0.00000000		0.00000000		0.00000000		0.00000000		0.00000000		0.00000000	
Mg		0.00000000		5.71900002		0.00000000		0.00000000		0.00000000		0.00000000	
Mg		2.56423502		5.71900002		4.12829991		0.00000000		0.00000000		0.00000000	
Mg		2.56423502		0.00000000		4.12829991		0.00000000		0.00000000		0.00000000	
Mg		0.00000000		2.85950001		8.00972809		0.00000000		 0.00000002		 0.00023392	
Mg		0.00000000		8.57850003		0.24687224		0.00000000		-0.00000002		-0.00023392	
Mg		2.56423502		8.57850003		3.88142818		-0.00000000		0.00000000		 0.00023391	
Mg		2.56423502		2.85950001		4.37517317		-0.00000000		-0.00000000		-0.00023391	
Mg		1.28211700		1.45948923		2.06415021		 0.00000003		-0.00025571		 0.00000003	
Mg		3.84635201		9.97851081		6.19245012		-0.00000003		 0.00025571		-0.00000003	
Mg		3.84635201		4.25951079		2.06415021		-0.00000004		 0.00025570		 0.00000002	
Mg		1.28211700		7.17848926		6.19245012		 0.00000004		-0.00025570		-0.00000002	
Mg		3.84635201		7.17848926		6.19245012		-0.00000004		-0.00025570		-0.00000002	
Mg		1.28211700		4.25951079		2.06415021		 0.00000004		 0.00025570		 0.00000002	
Mg		1.28211700		9.97851081		6.19245012		 0.00000003		 0.00025571		-0.00000003	
Mg		3.84635201		1.45948923		2.06415021		-0.00000003		-0.00025571		 0.00000003	
Si		0.00000000		1.37027181		5.09267126		0.00000000		-0.00022838		-0.00066741	
Si		0.00000000		10.06772824		3.16392907		0.00000000		 0.00022838		 0.00066741	
Si		0.00000000		4.34872719		5.09267126		-0.00000000		 0.00022845		-0.00066718	
Si		0.00000000		7.08927183		3.16392907		-0.00000000		-0.00022845		 0.00066718	
Si		2.56423502		7.08927183		0.96437084		0.00000000		-0.00022855		-0.00066661	
Si		2.56423502		4.34872719		7.29222898		0.00000000		 0.00022855		 0.00066661	
Si		2.56423502		10.06772824		0.96437084		0.00000000		 0.00022863		-0.00066650	
Si		2.56423502		1.37027181		7.29222898		0.00000000		-0.00022863		 0.00066650	
O		0.00000000		2.85950001		1.78838007		-0.00000000		-0.00000000		 0.00075722	
O		0.00000000		8.57850003		6.46822129		-0.00000000		0.00000000		-0.00075722	
O		2.56423502		8.57850003		5.91667998		-0.00000000		-0.00000002		 0.00075747	
O		2.56423502		2.85950001		2.33992087		-0.00000000		 0.00000002		-0.00075747	
O		0.00000000		2.85950001		5.91502912		0.00000000		-0.00000000		-0.00092172	
O		0.00000000		8.57850003		2.34157223		0.00000000		0.00000000		 0.00092172	
O		2.56423502		8.57850003		1.78672921		0.00000000		-0.00000002		-0.00092185	
O		2.56423502		2.85950001		6.46987214		0.00000000		 0.00000002		 0.00092185	
O		0.00000000		11.32362029		2.11203781		0.00000000		 0.00029436		 0.00042831	
O		0.00000000		0.11437975		6.14456200		0.00000000		-0.00029436		-0.00042831	
O		0.00000000		5.83338029		2.11203781		-0.00000000		-0.00029430		 0.00042838	
O		0.00000000		5.60462027		6.14456200		-0.00000000		 0.00029430		-0.00042838	
O		2.56423502		5.60462027		6.24033926		0.00000000		 0.00029420		 0.00042850	
O		2.56423502		5.83338029		2.01626210		0.00000000		-0.00029420		-0.00042850	
O		2.56423502		0.11437975		6.24033926		0.00000000		-0.00029415		 0.00042855	
O		2.56423502		11.32362029		2.01626210		0.00000000		 0.00029415		-0.00042855	
O		1.34109491		1.40115494		8.19467611		-0.00015167		-0.00030583		-0.00044352	
O		3.78737512		10.03684511		0.06192422		 0.00015167		 0.00030583		 0.00044352	
O		3.78737512		4.31784508		8.19467611		 0.00015161		 0.00030583		-0.00044357	
O		1.34109491		7.12015496		0.06192422		-0.00015161		-0.00030583		 0.00044357	
O		3.78737512		7.12015496		0.06192422		 0.00015161		-0.00030583		 0.00044357	
O		1.34109491		4.31784508		8.19467611		-0.00015161		 0.00030583		-0.00044357	
O		1.34109491		10.03684511		0.06192422		-0.00015167		 0.00030583		 0.00044352	
O		3.78737512		1.40115494		8.19467611		 0.00015167		-0.00030583		-0.00044352	
O		3.90532993		7.12015496		4.06637620		-0.00015137		-0.00030587		-0.00044365	
O		1.22314010		4.31784508		4.19022516		 0.00015137		 0.00030587		 0.00044365	
O		1.22314010		10.03684511		4.06637620		 0.00015126		 0.00030585		-0.00044374	
O		3.90532993		1.40115494		4.19022516		-0.00015126		-0.00030585		 0.00044374	
O		1.22314010		1.40115494		4.19022516		 0.00015126		-0.00030585		 0.00044374	
O		3.90532993		10.03684511		4.06637620		-0.00015126		 0.00030585		-0.00044374	
O		3.90532993		4.31784508		4.19022516		-0.00015137		 0.00030587		 0.00044365	
O		1.22314010		7.12015496		4.06637620		 0.00015137		-0.00030587		-0.00044365	
