# total energy = -11145.9075527 eV

CRYSTAL
PRIMVEC
		8.18509967		0.00000000		0.00000000
		0.00000000		4.41000074		0.00000000
		0.00000000		0.00000000		8.29199707
PRIMECORD
   12 1
Ca		0.16001870		1.10250019		5.64411569		 0.00043326		0.00000000		 0.00076783
Ca		8.02508097		3.30749974		2.64788384		-0.00043326		-0.00000000		-0.00076783
Ca		3.93253114		3.30749974		1.49811634		-0.00043326		-0.00000000		 0.00076783
Ca		4.25256853		1.10250019		6.79388401		 0.00043326		0.00000000		-0.00076783
Si		2.21480612		1.10250019		3.19739460		-0.00085019		0.00000000		-0.00005584
Si		5.97029355		3.30749974		5.09460493		 0.00085019		0.00000000		 0.00005584
Si		1.87774372		3.30749974		7.34339477		 0.00085019		0.00000000		-0.00005584
Si		6.30735596		1.10250019		0.94860476		-0.00085019		0.00000000		 0.00005584
Mg		1.17980027		1.10250019		0.52919534		-0.00057265		0.00000000		-0.00036763
Mg		7.00529940		3.30749974		7.76280337		 0.00057265		-0.00000000		 0.00036763
Mg		2.91274957		3.30749974		4.67519470		 0.00057265		-0.00000000		-0.00036763
Mg		5.27235010		1.10250019		3.61680401		-0.00057265		0.00000000		 0.00036763
