
     Program PWSCF v.6.6 starts on  4Feb2024 at 13:34:19 

     This program is part of the open-source Quantum ESPRESSO suite
     for quantum simulation of materials; please cite
         "P. Giannozzi et al., J. Phys.:Condens. Matter 21 395502 (2009);
         "P. Giannozzi et al., J. Phys.:Condens. Matter 29 465901 (2017);
          URL http://www.quantum-espresso.org", 
     in publications or presentations arising from this work. More details at
     http://www.quantum-espresso.org/quote

     Parallel version (MPI & OpenMP), running on      16 processor cores
     Number of MPI processes:                16
     Threads/MPI process:                     1

     MPI processes distributed on     2 nodes
     R & G space division:  proc/nbgrp/npool/nimage =      16
     Fft bands division:     nmany     =       1
     Waiting for input...
     Reading input from standard input

     Current dimensions of program PWSCF are:
     Max number of different atomic species (ntypx) = 10
     Max number of k-points (npk) =  40000
     Max angular momentum in pseudopotentials (lmaxx) =  3

     IMPORTANT: XC functional enforced from input :
     Exchange-correlation= PBE
                           (   1   4   3   4   0   0   0)
     Any further DFT definition will be discarded
     Please, verify this is what you really want


     --------------------------------------------
     Parameters for DFT-D3 Dispersion Correction:
     --------------------------------------------
       Reference C6 values for interpolation: 

         atom   Coordination number   C6
         O          0.000            31.01
         O          0.993            25.63
         O          1.989            20.74
         Mg         0.000          1366.75
         Mg         0.963           902.54
         Mg         1.950           351.12

       Values used:

         atom   Coordination number  R0_AB[au]  C6      C8
         Mg        16.507            3.292    351.12  31436.69
         Mg        16.507            3.292    351.12  31436.69
         Mg        16.507            3.292    351.12  31436.69
         Mg        16.507            3.292    351.12  31436.69
         O          5.817            2.345     20.74    418.58
         O          5.817            2.345     20.74    418.58
         O          5.817            2.345     20.74    418.58
         O          5.817            2.345     20.74    418.58

         Molecular C6 ( Ry / a.u.^6 ) =      8251.69


     Subspace diagonalization in iterative solution of the eigenvalue problem:
     a serial algorithm will be used

     Found symmetry operation: I + (  0.0000 -0.5000 -0.5000)
     This is a supercell, fractional translations are disabled
     Message from routine setup:
     using ibrav=0 with symmetry is DISCOURAGED, use correct ibrav instead
 
     Parallelization info
     --------------------
     sticks:   dense  smooth     PW     G-vecs:    dense   smooth      PW
     Min         126     126     35                 4250     4250     626
     Max         128     128     37                 4251     4251     628
     Sum        2023    2023    565                68005    68005   10031
 


     bravais-lattice index     =            0
     lattice parameter (alat)  =       7.9640  a.u.
     unit-cell volume          =     503.1030 (a.u.)^3
     number of atoms/cell      =            8
     number of atomic types    =            2
     number of electrons       =        64.00
     number of Kohn-Sham states=           38
     kinetic-energy cutoff     =     100.0000  Ry
     charge density cutoff     =     400.0000  Ry
     convergence threshold     =      1.0E-06
     mixing beta               =       0.5000
     number of iterations used =            8  plain     mixing
     Exchange-correlation= PBE
                           (   1   4   3   4   0   0   0)
     nstep                     =          100


     celldm(1)=   7.964000  celldm(2)=   0.000000  celldm(3)=   0.000000
     celldm(4)=   0.000000  celldm(5)=   0.000000  celldm(6)=   0.000000

     crystal axes: (cart. coord. in units of alat)
               a(1) = (   0.999201   0.039968   0.000000 )  
               a(2) = (   0.039968   0.999201   0.000000 )  
               a(3) = (   0.000000   0.000000   0.999201 )  

     reciprocal axes: (cart. coord. in units 2 pi/alat)
               b(1) = (  1.002404 -0.040096  0.000000 )  
               b(2) = ( -0.040096  1.002404  0.000000 )  
               b(3) = (  0.000000  0.000000  1.000800 )  


     PseudoPot. # 1 for Mg read from file:
     ./Mg.upf
     MD5 check sum: 4c04d8c6e0476e83eaecaf72fa8acc4d
     Pseudo is Norm-conserving, Zval = 10.0
     Generated using ONCVPSP code by D. R. Hamann
     Using radial grid of 1510 points,  4 beta functions with: 
                l(1) =   0
                l(2) =   0
                l(3) =   1
                l(4) =   1

     PseudoPot. # 2 for O  read from file:
     ./O.upf
     MD5 check sum: 3e3f909f7470e8921608ab6b1f57bbae
     Pseudo is Norm-conserving + core correction, Zval =  6.0
     Generated using ONCVPSP code by D. R. Hamann
     Using radial grid of  936 points,  5 beta functions with: 
                l(1) =   0
                l(2) =   0
                l(3) =   1
                l(4) =   1
                l(5) =   2

     atomic species   valence    mass     pseudopotential
        Mg            10.00    24.30500     Mg( 1.00)
        O              6.00    15.99900     O ( 1.00)

      8 Sym. Ops., with inversion, found



   Cartesian axes

     site n.     atom                  positions (alat units)
         1           Mg  tau(   1) = (   0.0000000   0.0000000   0.0000000  )
         2           Mg  tau(   2) = (   0.0199840   0.4996005   0.4996005  )
         3           Mg  tau(   3) = (   0.4996005   0.0199840   0.4996005  )
         4           Mg  tau(   4) = (   0.5195845   0.5195845   0.0000000  )
         5           O   tau(   5) = (   0.5195845   0.5195845   0.4996005  )
         6           O   tau(   6) = (   0.4996005   0.0199840   0.0000000  )
         7           O   tau(   7) = (   0.0199840   0.4996005   0.0000000  )
         8           O   tau(   8) = (   0.0000000   0.0000000   0.4996005  )

     number of k points=    27  Gaussian smearing, width (Ry)=  0.0050
                       cart. coord. in units 2pi/alat
        k(    1) = (   0.0000000   0.0000000   0.0000000), wk =   0.0160000
        k(    2) = (   0.0000000   0.0000000   0.2001599), wk =   0.0320000
        k(    3) = (   0.0000000   0.0000000   0.4003199), wk =   0.0320000
        k(    4) = (  -0.0080192   0.2004807   0.0000000), wk =   0.0640000
        k(    5) = (  -0.0080192   0.2004807   0.2001599), wk =   0.1280000
        k(    6) = (  -0.0080192   0.2004807   0.4003199), wk =   0.1280000
        k(    7) = (  -0.0160385   0.4009614   0.0000000), wk =   0.0640000
        k(    8) = (  -0.0160385   0.4009614   0.2001599), wk =   0.1280000
        k(    9) = (  -0.0160385   0.4009614   0.4003199), wk =   0.1280000
        k(   10) = (   0.1924615   0.1924615   0.0000000), wk =   0.0320000
        k(   11) = (   0.1924615   0.1924615   0.2001599), wk =   0.0640000
        k(   12) = (   0.1924615   0.1924615   0.4003199), wk =   0.0640000
        k(   13) = (   0.1844422   0.3929422   0.0000000), wk =   0.0640000
        k(   14) = (   0.1844422   0.3929422   0.2001599), wk =   0.1280000
        k(   15) = (   0.1844422   0.3929422   0.4003199), wk =   0.1280000
        k(   16) = (   0.2165192  -0.4089806   0.0000000), wk =   0.0640000
        k(   17) = (   0.2165192  -0.4089806   0.2001599), wk =   0.1280000
        k(   18) = (   0.2165192  -0.4089806   0.4003199), wk =   0.1280000
        k(   19) = (   0.2084999  -0.2084999   0.0000000), wk =   0.0320000
        k(   20) = (   0.2084999  -0.2084999   0.2001599), wk =   0.0640000
        k(   21) = (   0.2084999  -0.2084999   0.4003199), wk =   0.0640000
        k(   22) = (   0.3849230   0.3849230   0.0000000), wk =   0.0320000
        k(   23) = (   0.3849230   0.3849230   0.2001599), wk =   0.0640000
        k(   24) = (   0.3849230   0.3849230   0.4003199), wk =   0.0640000
        k(   25) = (   0.4169999  -0.4169999   0.0000000), wk =   0.0320000
        k(   26) = (   0.4169999  -0.4169999   0.2001599), wk =   0.0640000
        k(   27) = (   0.4169999  -0.4169999   0.4003199), wk =   0.0640000

     Dense  grid:    68005 G-vectors     FFT dimensions: (  54,  54,  54)

     Estimated max dynamical RAM per process >      15.84 MB

     Estimated total dynamical RAM >     253.41 MB

     Initial potential from superposition of free atoms

     starting charge   63.99678, renormalised to   64.00000
     Starting wfcs are   36 randomized atomic wfcs +    2 random wfcs

     total cpu time spent up to now is        1.5 secs

     Self-consistent Calculation

     iteration #  1     ecut=   100.00 Ry     beta= 0.50
     Davidson diagonalization with overlap
     ethr =  1.00E-02,  avg # of iterations =  4.2

     total cpu time spent up to now is        8.6 secs

     total energy              =    -608.01553613 Ry
     estimated scf accuracy    <       1.57753182 Ry

     iteration #  2     ecut=   100.00 Ry     beta= 0.50
     Davidson diagonalization with overlap
     ethr =  2.46E-03,  avg # of iterations =  2.1

     total cpu time spent up to now is       10.8 secs

     total energy              =    -608.46401617 Ry
     estimated scf accuracy    <       0.24186892 Ry

     iteration #  3     ecut=   100.00 Ry     beta= 0.50
     Davidson diagonalization with overlap
     ethr =  3.78E-04,  avg # of iterations =  2.6

     total cpu time spent up to now is       13.0 secs

     total energy              =    -608.49911575 Ry
     estimated scf accuracy    <       0.01292567 Ry

     iteration #  4     ecut=   100.00 Ry     beta= 0.50
     Davidson diagonalization with overlap
     ethr =  2.02E-05,  avg # of iterations =  4.9

     total cpu time spent up to now is       15.5 secs

     total energy              =    -608.49975261 Ry
     estimated scf accuracy    <       0.00172562 Ry

     iteration #  5     ecut=   100.00 Ry     beta= 0.50
     Davidson diagonalization with overlap
     ethr =  2.70E-06,  avg # of iterations =  4.4

     total cpu time spent up to now is       18.0 secs

     total energy              =    -608.50015049 Ry
     estimated scf accuracy    <       0.00004707 Ry

     iteration #  6     ecut=   100.00 Ry     beta= 0.50
     Davidson diagonalization with overlap
     ethr =  7.35E-08,  avg # of iterations =  2.1

     total cpu time spent up to now is       20.3 secs

     total energy              =    -608.50016233 Ry
     estimated scf accuracy    <       0.00000178 Ry

     iteration #  7     ecut=   100.00 Ry     beta= 0.50
     Davidson diagonalization with overlap
     ethr =  2.78E-09,  avg # of iterations =  3.0

     total cpu time spent up to now is       23.1 secs

     total energy              =    -608.50016136 Ry
     estimated scf accuracy    <       0.00000255 Ry

     iteration #  8     ecut=   100.00 Ry     beta= 0.50
     Davidson diagonalization with overlap
     ethr =  2.78E-09,  avg # of iterations =  2.3

     total cpu time spent up to now is       25.4 secs

     End of self-consistent calculation

          k = 0.0000 0.0000 0.0000 (  8491 PWs)   bands (ev):

   -64.2913 -64.2799 -64.2791 -64.2790 -31.1384 -31.1384 -31.1139 -31.0868
   -31.0694 -31.0694 -31.0619 -31.0571 -31.0553 -31.0552 -31.0418 -31.0251
    -9.1004  -7.5589  -7.5303  -7.5302   4.0449   4.0595   4.0595   6.2992
     6.7631   6.7631   6.7752   6.7753   7.2650   7.8182   8.0795   8.4217
    12.8106  16.7006  17.3253  18.1182  18.1182  18.8126

          k = 0.0000 0.0000 0.2002 (  8493 PWs)   bands (ev):

   -64.2902 -64.2810 -64.2790 -64.2790 -31.1364 -31.1364 -31.1078 -31.0844
   -31.0701 -31.0701 -31.0642 -31.0573 -31.0572 -31.0540 -31.0495 -31.0281
    -8.9564  -7.7079  -7.5086  -7.5085   4.2501   4.2501   4.2685   6.4006
     6.4006   6.4203   6.6255   6.6256   7.3605   7.3652   7.6428   8.2933
    13.6382  16.9459  17.8864  17.8864  18.6996  18.6996

          k = 0.0000 0.0000 0.4003 (  8510 PWs)   bands (ev):

   -64.2874 -64.2838 -64.2790 -64.2790 -31.1328 -31.1328 -31.0911 -31.0782
   -31.0712 -31.0712 -31.0704 -31.0688 -31.0607 -31.0607 -31.0460 -31.0361
    -8.5755  -8.0978  -7.4731  -7.4729   4.7935   4.7935   4.9552   5.6021
     5.6021   6.0691   6.3943   6.3944   6.7572   7.2202   7.6233   7.9778
    15.2727  16.7662  18.8139  19.0546  19.0546  19.9725

          k =-0.0080 0.2005 0.0000 (  8499 PWs)   bands (ev):

   -64.2902 -64.2802 -64.2798 -64.2791 -31.1334 -31.1315 -31.1096 -31.0916
   -31.0736 -31.0691 -31.0667 -31.0578 -31.0562 -31.0528 -31.0444 -31.0288
    -8.9546  -7.6833  -7.5349  -7.5117   4.2377   4.2531   4.2891   6.0857
     6.4076   6.6122   6.8716   6.8806   6.9589   7.3050   7.9312   8.0662
    13.6357  17.2762  17.6569  17.9021  17.9471  18.6971

          k =-0.0080 0.2005 0.2002 (  8497 PWs)   bands (ev):

   -64.2892 -64.2808 -64.2801 -64.2792 -31.1318 -31.1307 -31.1069 -31.0875
   -31.0764 -31.0732 -31.0690 -31.0545 -31.0541 -31.0531 -31.0513 -31.0297
    -8.8183  -7.6672  -7.6446  -7.5049   4.3592   4.3812   4.4398   5.7836
     6.2564   6.5185   6.6948   6.8065   6.9026   7.0940   7.7169   8.0999
    14.2295  17.4594  18.0327  18.1340  18.4385  19.1347

          k =-0.0080 0.2005 0.4003 (  8509 PWs)   bands (ev):

   -64.2866 -64.2834 -64.2798 -64.2795 -31.1292 -31.1292 -31.0979 -31.0844
   -31.0783 -31.0776 -31.0745 -31.0647 -31.0532 -31.0531 -31.0451 -31.0355
    -8.4606  -8.0193  -7.5646  -7.5107   4.6444   4.8133   4.9717   5.1041
     5.6578   5.7481   6.6891   6.7455   6.8619   7.2363   7.4404   7.8471
    15.6030  17.0636  18.7029  18.9249  19.1192  19.4982

          k =-0.0160 0.4010 0.0000 (  8494 PWs)   bands (ev):

   -64.2871 -64.2833 -64.2796 -64.2793 -31.1203 -31.1127 -31.1043 -31.0985
   -31.0887 -31.0847 -31.0598 -31.0586 -31.0579 -31.0513 -31.0462 -31.0372
    -8.5681  -8.0819  -7.4930  -7.4841   4.7893   4.7943   4.9845   5.5172
     5.5967   6.0892   6.3926   6.4810   7.1725   7.1773   7.5710   7.6093
    15.2788  16.9239  18.5968  18.6406  19.1593  19.6430

          k =-0.0160 0.4010 0.2002 (  8487 PWs)   bands (ev):

   -64.2864 -64.2829 -64.2803 -64.2797 -31.1201 -31.1149 -31.1086 -31.0933
   -31.0918 -31.0863 -31.0644 -31.0573 -31.0536 -31.0530 -31.0442 -31.0353
    -8.4551  -8.0054  -7.5811  -7.5185   4.6166   4.8456   4.9193   5.1573
     5.6806   5.7278   6.7902   6.8563   6.8738   7.2246   7.3674   7.6958
    15.6095  17.1911  18.5805  18.7449  18.9989  19.6624

          k =-0.0160 0.4010 0.4003 (  8500 PWs)   bands (ev):

   -64.2845 -64.2822 -64.2819 -64.2807 -31.1203 -31.1188 -31.1093 -31.1028
   -31.0832 -31.0809 -31.0740 -31.0686 -31.0459 -31.0438 -31.0429 -31.0366
    -8.1665  -7.8300  -7.8218  -7.6337   4.5914   4.6156   4.6374   5.0010
     5.4919   6.1920   6.1937   6.8047   7.2502   7.3093   7.3285   7.6766
    16.4917  17.6846  17.7326  18.2208  19.6683  20.0205

          k = 0.1925 0.1925 0.0000 (  8483 PWs)   bands (ev):

   -64.2896 -64.2804 -64.2796 -64.2796 -31.1384 -31.1384 -31.1061 -31.0832
   -31.0702 -31.0702 -31.0654 -31.0630 -31.0480 -31.0480 -31.0478 -31.0396
    -8.8460  -7.6086  -7.6085  -7.5616   4.3469   4.3470   4.3967   5.4697
     6.5671   6.5796   6.5797   6.7521   6.7522   7.3693   7.6977   8.3071
    14.2380  18.0231  18.1231  18.1231  18.4314  18.4314

          k = 0.1925 0.1925 0.2002 (  8504 PWs)   bands (ev):

   -64.2888 -64.2813 -64.2796 -64.2796 -31.1391 -31.1391 -31.1052 -31.0813
   -31.0691 -31.0691 -31.0649 -31.0624 -31.0589 -31.0490 -31.0490 -31.0337
    -8.7181  -7.6752  -7.5847  -7.5846   4.2789   4.3813   4.3813   5.9158
     5.9560   6.1548   6.1549   6.9657   6.9657   7.4486   7.8017   8.2058
    14.6474  17.8433  17.8433  18.2826  18.7938  19.3639

          k = 0.1925 0.1925 0.4003 (  8503 PWs)   bands (ev):

   -64.2864 -64.2836 -64.2796 -64.2796 -31.1404 -31.1404 -31.0984 -31.0828
   -31.0762 -31.0699 -31.0667 -31.0667 -31.0511 -31.0511 -31.0459 -31.0356
    -8.3859  -7.9853  -7.5456  -7.5455   4.4097   4.4153   4.4153   5.0272
     5.8476   5.8477   6.7334   6.9492   6.9492   7.4759   7.6654   7.9537
    15.7971  17.3508  17.9740  17.9741  19.0042  20.3731

          k = 0.1844 0.3929 0.0000 (  8496 PWs)   bands (ev):

   -64.2872 -64.2820 -64.2808 -64.2792 -31.1355 -31.1298 -31.0957 -31.0865
   -31.0805 -31.0729 -31.0689 -31.0625 -31.0554 -31.0509 -31.0461 -31.0379
    -8.5054  -7.9491  -7.5856  -7.5116   4.6586   4.8346   4.9109   4.9283
     5.6148   5.8152   6.5797   6.9538   7.1077   7.2244   7.2452   7.9525
    15.6524  17.1631  18.8219  18.9345  19.0869  19.2256

          k = 0.1844 0.3929 0.2002 (  8492 PWs)   bands (ev):

   -64.2866 -64.2818 -64.2814 -64.2794 -31.1382 -31.1334 -31.1015 -31.0845
   -31.0796 -31.0766 -31.0672 -31.0614 -31.0589 -31.0449 -31.0399 -31.0390
    -8.4024  -7.8851  -7.6536  -7.5286   4.2175   4.4593   4.6198   5.0930
     5.8075   5.8466   6.8149   6.9022   7.2088   7.3208   7.5206   7.8369
    15.7793  16.9567  18.0117  18.6309  19.4815  19.5572

          k = 0.1844 0.3929 0.4003 (  8483 PWs)   bands (ev):

   -64.2850 -64.2830 -64.2810 -64.2801 -31.1415 -31.1396 -31.1038 -31.0951
   -31.0799 -31.0739 -31.0685 -31.0623 -31.0444 -31.0427 -31.0410 -31.0368
    -8.1444  -7.8554  -7.7375  -7.5996   3.9954   4.1956   4.2700   4.3454
     6.0773   6.4928   6.7310   7.2415   7.3042   7.3879   7.5538   7.7369
    16.3563  16.9081  17.2447  17.4616  19.5860  19.9269

          k = 0.2165-0.4090 0.0000 (  8501 PWs)   bands (ev):

   -64.2854 -64.2838 -64.2810 -64.2791 -31.1236 -31.1102 -31.1002 -31.0947
   -31.0938 -31.0825 -31.0660 -31.0644 -31.0575 -31.0535 -31.0472 -31.0292
    -8.4030  -8.0626  -7.6340  -7.4667   4.6115   4.8462   5.0198   5.2582
     5.6842   5.7686   6.5345   6.7861   6.9190   7.3614   7.4244   7.4906
    15.5743  17.2340  18.1784  19.0092  19.0459  19.3673

          k = 0.2165-0.4090 0.2002 (  8501 PWs)   bands (ev):

   -64.2848 -64.2835 -64.2812 -64.2797 -31.1284 -31.1157 -31.0985 -31.0971
   -31.0924 -31.0849 -31.0758 -31.0554 -31.0540 -31.0474 -31.0451 -31.0307
    -8.2998  -7.9983  -7.6488  -7.5380   4.2846   4.5239   4.5335   5.3392
     5.8822   5.9531   6.7230   6.9230   7.1033   7.3139   7.3414   7.6021
    15.6327  17.2042  17.7612  18.4399  19.3734  19.7130

          k = 0.2165-0.4090 0.4003 (  8503 PWs)   bands (ev):

   -64.2832 -64.2828 -64.2819 -64.2813 -31.1314 -31.1259 -31.1019 -31.1016
   -31.0933 -31.0862 -31.0702 -31.0590 -31.0443 -31.0413 -31.0399 -31.0345
    -8.0401  -7.8508  -7.7464  -7.7155   3.9585   4.0693   4.3420   4.6735
     6.3990   6.4833   6.8227   6.9770   7.1973   7.3434   7.3478   7.5896
    16.0169  16.8338  17.3752  17.8045  19.8121  19.9217

          k = 0.2085-0.2085 0.0000 (  8501 PWs)   bands (ev):

   -64.2885 -64.2807 -64.2807 -64.2793 -31.1172 -31.1172 -31.1069 -31.1049
   -31.0870 -31.0714 -31.0714 -31.0597 -31.0597 -31.0512 -31.0466 -31.0253
    -8.7874  -7.6852  -7.6851  -7.4904   4.4115   4.4115   4.4563   6.1021
     6.4716   6.4807   6.4808   6.8368   6.8369   6.9287   7.7151   7.8156
    14.2182  17.2939  18.2376  18.2376  18.3659  18.3660

          k = 0.2085-0.2085 0.2002 (  8500 PWs)   bands (ev):

   -64.2877 -64.2807 -64.2807 -64.2802 -31.1155 -31.1155 -31.1147 -31.0925
   -31.0903 -31.0801 -31.0800 -31.0533 -31.0533 -31.0493 -31.0487 -31.0278
    -8.6593  -7.6606  -7.6604  -7.6066   4.3967   4.3967   4.4656   6.1498
     6.1499   6.3225   6.3956   6.5741   7.0225   7.0226   7.5768   7.9189
    14.6034  17.2946  18.1116  18.1116  19.0741  19.0742

          k = 0.2085-0.2085 0.4003 (  8504 PWs)   bands (ev):

   -64.2853 -64.2825 -64.2807 -64.2807 -31.1138 -31.1119 -31.1118 -31.1044
   -31.0901 -31.0901 -31.0729 -31.0581 -31.0480 -31.0480 -31.0422 -31.0342
    -8.3258  -7.9216  -7.6202  -7.6200   4.3327   4.3327   4.7199   5.3911
     5.9372   5.9373   6.8565   7.0248   7.0335   7.0336   7.2375   7.6392
    15.6077  16.7547  18.4982  18.4983  19.6952  19.6952

          k = 0.3849 0.3849 0.0000 (  8540 PWs)   bands (ev):

   -64.2858 -64.2823 -64.2806 -64.2805 -31.1393 -31.1393 -31.0866 -31.0757
   -31.0750 -31.0715 -31.0715 -31.0673 -31.0660 -31.0643 -31.0352 -31.0352
    -8.2509  -7.7343  -7.7298  -7.7297   4.5476   4.6389   4.6389   4.9584
     5.3663   6.2931   6.2932   6.6474   7.0567   7.0568   7.6497   8.0093
    16.5744  17.6734  17.6734  18.3939  19.5772  20.1756

          k = 0.3849 0.3849 0.2002 (  8498 PWs)   bands (ev):

   -64.2855 -64.2826 -64.2806 -64.2805 -31.1442 -31.1442 -31.1015 -31.0880
   -31.0742 -31.0680 -31.0671 -31.0671 -31.0584 -31.0461 -31.0353 -31.0353
    -8.1774  -7.7558  -7.7026  -7.7025   3.9352   4.2539   4.2539   4.3935
     6.1786   6.6398   6.6398   7.1186   7.1186   7.1375   7.6821   7.9729
    16.3225  16.9413  16.9413  17.8046  20.0147  20.3005

          k = 0.3849 0.3849 0.4003 (  8463 PWs)   bands (ev):

   -64.2846 -64.2835 -64.2806 -64.2805 -31.1512 -31.1512 -31.1106 -31.1055
   -31.0722 -31.0699 -31.0609 -31.0608 -31.0424 -31.0376 -31.0355 -31.0355
    -8.0059  -7.8425  -7.6579  -7.6578   3.5143   3.7017   3.8056   3.8056
     6.9114   6.9115   7.1256   7.3369   7.3369   7.5135   7.7687   7.8797
    16.1752  16.1928  16.1928  16.7547  20.0615  20.1302

          k = 0.4170-0.4170 0.0000 (  8521 PWs)   bands (ev):

   -64.2834 -64.2834 -64.2829 -64.2794 -31.1370 -31.1296 -31.0835 -31.0818
   -31.0818 -31.0747 -31.0747 -31.0677 -31.0677 -31.0612 -31.0386 -31.0287
    -8.0754  -7.9179  -7.9178  -7.5427   4.5779   4.5780   4.7374   5.0712
     5.5621   6.0634   6.0635   6.9057   6.9073   7.3916   7.6105   7.6106
    16.4456  17.8262  17.8262  17.9737  19.7258  20.0151

          k = 0.4170-0.4170 0.2002 (  8501 PWs)   bands (ev):

   -64.2834 -64.2834 -64.2826 -64.2798 -31.1424 -31.1355 -31.0958 -31.0958
   -31.0766 -31.0765 -31.0759 -31.0588 -31.0524 -31.0524 -31.0376 -31.0297
    -8.0022  -7.8889  -7.8888  -7.5679   4.0741   4.0742   4.2113   4.6179
     6.2638   6.6147   6.6147   6.9515   7.2571   7.3435   7.6102   7.6103
    16.0537  17.2170  17.3371  17.3371  19.9420  19.9422

          k = 0.4170-0.4170 0.4003 (  8469 PWs)   bands (ev):

   -64.2834 -64.2834 -64.2817 -64.2806 -31.1481 -31.1451 -31.1085 -31.1085
   -31.0766 -31.0766 -31.0638 -31.0576 -31.0406 -31.0406 -31.0351 -31.0321
    -7.8412  -7.8411  -7.8300  -7.6619   3.5443   3.5443   3.8387   4.0123
     7.0695   7.1166   7.2192   7.2733   7.2733   7.5075   7.5623   7.5624
    15.7261  16.1771  16.7297  16.7298  20.1559  20.1559

     the Fermi energy is     9.8921 ev

!    total energy              =    -608.50016186 Ry
     estimated scf accuracy    <       0.00000003 Ry
     smearing contrib. (-TS)   =      -0.00000000 Ry
     internal energy E=F+TS    =    -608.50016186 Ry

     The total energy is F=E-TS. E is the sum of the following terms:
     one-electron contribution =    -296.73935700 Ry
     hartree contribution      =     165.80080873 Ry
     xc contribution           =     -97.98726781 Ry
     ewald contribution        =    -379.46606921 Ry
     DFT-D3 Dispersion         =      -0.10827655 Ry

     convergence has been achieved in   8 iterations

     Forces acting on atoms (cartesian axes, Ry/au):

     atom    1 type  1   force =     0.00000000    0.00000000    0.00000000
     atom    2 type  1   force =     0.00000000    0.00000000    0.00000000
     atom    3 type  1   force =     0.00000000    0.00000000    0.00000000
     atom    4 type  1   force =     0.00000000    0.00000000    0.00000000
     atom    5 type  2   force =     0.00000000    0.00000000    0.00000000
     atom    6 type  2   force =     0.00000000    0.00000000    0.00000000
     atom    7 type  2   force =     0.00000000    0.00000000    0.00000000
     atom    8 type  2   force =     0.00000000    0.00000000    0.00000000

     Total force =     0.000000     Total SCF correction =     0.000000

     BFGS Geometry Optimization

     bfgs converged in   1 scf cycles and   0 bfgs steps
     (criteria: energy <  1.0E-04 Ry, force <  1.0E-03 Ry/Bohr)

     End of BFGS Geometry Optimization

     Final energy   =    -608.5001618552 Ry
Begin final coordinates

ATOMIC_POSITIONS (angstrom)
Mg            0.0000000000        0.0000000000        0.0000000000
Mg            0.0842200000        2.1055000000        2.1055000000
Mg            2.1055000000        0.0842200000        2.1055000000
Mg            2.1897200000        2.1897200000        0.0000000000
O             2.1897200000        2.1897200000        2.1055000000
O             2.1055000000        0.0842200000        0.0000000000
O             0.0842200000        2.1055000000        0.0000000000
O             0.0000000000        0.0000000000        2.1055000000
End final coordinates


 
     init_run     :      1.22s CPU      1.28s WALL (       1 calls)
     electrons    :     22.88s CPU     23.95s WALL (       1 calls)
     forces       :      4.60s CPU      4.64s WALL (       1 calls)

     Called by init_run:
     wfcinit      :      0.90s CPU      0.94s WALL (       1 calls)
     potinit      :      0.11s CPU      0.11s WALL (       1 calls)
     hinit0       :      0.16s CPU      0.17s WALL (       1 calls)

     Called by electrons:
     c_bands      :     16.18s CPU     17.02s WALL (       8 calls)
     sum_band     :      2.46s CPU      2.58s WALL (       8 calls)
     v_of_rho     :      0.11s CPU      0.12s WALL (       9 calls)
     mix_rho      :      0.01s CPU      0.03s WALL (       8 calls)

     Called by c_bands:
     init_us_2    :      0.19s CPU      0.24s WALL (     486 calls)
     cegterg      :     15.62s CPU     16.35s WALL (     216 calls)

     Called by *egterg:
     cdiaghg      :      1.64s CPU      1.68s WALL (     906 calls)
     h_psi        :     13.25s CPU     13.93s WALL (     933 calls)
     g_psi        :      0.03s CPU      0.03s WALL (     690 calls)

     Called by h_psi:
     h_psi:calbec :      0.60s CPU      0.63s WALL (     933 calls)
     vloc_psi     :     12.25s CPU     12.88s WALL (     933 calls)
     add_vuspsi   :      0.33s CPU      0.34s WALL (     933 calls)

     General routines
     calbec       :      0.70s CPU      0.74s WALL (    1041 calls)
     fft          :      0.12s CPU      0.13s WALL (     100 calls)
     ffts         :      0.00s CPU      0.00s WALL (       8 calls)
     fftw         :     13.76s CPU     14.44s WALL (   50528 calls)
 
     Parallel routines
     fft_scatt_xy :      1.44s CPU      1.50s WALL (   50636 calls)
     fft_scatt_yz :      8.78s CPU      9.24s WALL (   50636 calls)
 
     PWSCF        :     28.87s CPU     30.06s WALL

 
   This run was terminated on:  13:34:49   4Feb2024            

=------------------------------------------------------------------------------=
   JOB DONE.
=------------------------------------------------------------------------------=
