# total energy = -18533.2282263 eV

CRYSTAL
PRIMVEC
		5.15459974		0.00000000		0.00000000
		-2.57729987		4.05819576		0.00000000
		0.00000000		0.00000000		13.29100142
PRIMECORD
   30 1
O		1.56802873		0.13229693		3.21110585		-0.00019042		-0.00049441		-0.00018441
O		1.00927115		3.92589780		10.07989351		 0.00019042		 0.00049441		 0.00018441
O		4.24455464		1.16835395		3.21110585		 0.00001388		-0.00035948		-0.00020259
O		-1.66725477		2.88984078		10.07989351		-0.00001388		 0.00035948		 0.00020259
O		1.91931470		2.75754282		3.21110585		 0.00025404		-0.00026551		-0.00061998
O		0.65798517		1.30065088		10.07989351		-0.00025404		 0.00026551		 0.00061998
O		4.14532860		1.48502885		7.64143845		-0.00020876		-0.00046637		-0.00018903
O		1.00927115		1.22043396		1.21922779		 0.00022815		 0.00045800		 0.00022944
O		1.66725477		2.52108587		7.64143845		 0.00001735		-0.00033228		-0.00021095
O		3.48734497		0.18437694		1.21922779		 0.00000770		 0.00036701		 0.00021842
O		1.91931470		0.05208001		7.64143845		 0.00024279		-0.00024079		-0.00062407
O		3.23528505		2.65338280		1.21922779		-0.00027172		 0.00025279		 0.00063462
O		1.56802873		2.83775974		12.07177260		-0.00022815		-0.00045800		-0.00022944
O		-1.56802873		2.57316588		5.64956091		 0.00020876		 0.00046637		 0.00018903
O		-0.91004510		3.87381779		12.07177260		-0.00000770		-0.00036701		-0.00021842
O		0.91004510		1.53710886		5.64956091		-0.00001735		 0.00033228		 0.00021095
O		-0.65798517		1.40481193		12.07177260		 0.00027172		-0.00025279		-0.00063462
O		0.65798517		4.00611472		5.64956091		-0.00024279		 0.00024079		 0.00062407
Mg		0.00000000		0.00000000		4.76615272		-0.00010946		 0.00012580		 0.00025230
Mg		0.00000000		0.00000000		8.52484664		 0.00010946		-0.00012580		-0.00025230
Mg		2.57729987		1.35273192		9.19648532		-0.00012395		 0.00017164		 0.00026869
Mg		2.57729987		1.35273192		12.95518028		 0.00012587		-0.00012659		-0.00037721
Mg		0.00000000		2.70546281		0.33581908		-0.00012587		 0.00012659		 0.00037721
Mg		0.00000000		2.70546281		4.09451404		 0.00012395		-0.00017164		-0.00026869
Si		0.00000000		0.00000000		2.08668713		 0.00013721		 0.00050887		-0.00000684
Si		0.00000000		0.00000000		11.20431223		-0.00013721		-0.00050887		 0.00000684
Si		2.57729987		1.35273192		6.51702077		 0.00013068		 0.00051317		-0.00003401
Si		2.57729987		1.35273192		2.34364599		-0.00013423		-0.00052696		 0.00002408
Si		0.00000000		2.70546281		10.94735337		 0.00013423		 0.00052696		-0.00002408
Si		0.00000000		2.70546281		6.77397962		-0.00013068		-0.00051317		 0.00003401
