# total energy = -18534.8637165 eV

CRYSTAL
PRIMVEC
		4.80314988		0.00000000		0.00000000
		-2.40157494		4.05819574		0.00000000
		0.00000000		0.00000000		13.29099777
PRIMECORD
   30 1
O		1.46111819		0.13229700		3.21110599		 0.00018432		 0.00009035		-0.00016584
O		0.94045675		3.92589778		10.07989371		-0.00018432		-0.00009035		 0.00016584
O		3.95515377		1.16835420		3.21110599		 0.00030196		 0.00008738		-0.00041380
O		-1.55357883		2.88984106		10.07989371		-0.00030196		-0.00008738		 0.00041380
O		1.78845286		2.75754310		3.21110599		 0.00000312		 0.00035741		-0.00002662
O		0.61312208		1.30065120		10.07989371		-0.00000312		-0.00035741		 0.00002662
O		3.86269314		1.48502875		7.64143874		 0.00018577		 0.00009803		-0.00017670
O		0.94045675		1.22043379		1.21922820		-0.00019754		-0.00006839		 0.00015110
O		1.55357883		2.52108596		7.64143874		 0.00030371		 0.00009254		-0.00042478
O		3.24957105		0.18437707		1.21922820		-0.00031642		-0.00011142		 0.00040365
O		1.78845286		0.05208007		7.64143874		 0.00001484		 0.00035869		-0.00003962
O		3.01469702		2.65338296		1.21922820		 0.00002274		-0.00035502		 0.00001715
O		1.46111819		2.83776003		12.07177293		 0.00019754		 0.00006839		-0.00015110
O		-1.46111819		2.57316603		5.64956095		-0.00018577		-0.00009803		 0.00017670
O		-0.84799611		3.87381771		12.07177293		 0.00031642		 0.00011142		-0.00040365
O		0.84799611		1.53710883		5.64956095		-0.00030371		-0.00009254		 0.00042478
O		-0.61312208		1.40481183		12.07177293		-0.00002274		 0.00035502		-0.00001715
O		0.61312208		4.00611471		5.64956095		-0.00001484		-0.00035869		 0.00003962
Mg		0.00000000		0.00000000		4.76615266		 0.00037289		 0.00038557		 0.00073722
Mg		0.00000000		0.00000000		8.52484655		-0.00037289		-0.00038557		-0.00073722
Mg		2.40157494		1.35273175		9.19648589		 0.00040669		 0.00041263		 0.00063697
Mg		2.40157494		1.35273175		12.95518074		-0.00038686		-0.00039217		-0.00058349
Mg		0.00000000		2.70546303		0.33581895		 0.00038686		 0.00039217		 0.00058349
Mg		0.00000000		2.70546303		4.09451380		-0.00040669		-0.00041263		-0.00063697
Si		0.00000000		0.00000000		2.08668716		 0.00000315		-0.00013959		 0.00041417
Si		0.00000000		0.00000000		11.20431253		-0.00000315		 0.00013959		-0.00041417
Si		2.40157494		1.35273175		6.51702087		-0.00000140		-0.00014255		 0.00039881
Si		2.40157494		1.35273175		2.34364607		-0.00000096		 0.00014043		-0.00037116
Si		0.00000000		2.70546303		10.94735362		 0.00000096		-0.00014043		 0.00037116
Si		0.00000000		2.70546303		6.77397978		 0.00000140		 0.00014255		-0.00039881
