# total energy = -49447.0350958 eV	

CRYSTAL	
PRIMVEC	
		13.76724824		0.00002805		0.00000000	
		0.00001402		5.02019919		0.00000000	
		0.00000000		0.00000000		8.60090494	
PRIMCOORD
   70 1	
Mg		2.38795477		1.69327735		0.05456177		 0.00002845		-0.00035219		-0.00020148	
Mg		11.37930749		3.32694989		0.05456177		-0.00002859		 0.00035217		-0.00020146	
Mg		9.27157327		0.81684609		4.35501705		 0.00004970		 0.00035043		-0.00020144	
Mg		4.49568898		4.20338115		4.35501705		-0.00004981		-0.00035040		-0.00020147	
Mg		2.43054004		4.23796714		1.56601236		-0.00046704		-0.00050313		-0.00028464	
Mg		11.33672222		0.78225870		1.56601236		 0.00046687		 0.00050319		-0.00028469	
Mg		9.31415855		3.29235409		5.86646903		-0.00044650		 0.00050907		-0.00028893	
Mg		4.45310371		1.72787315		5.86646903		 0.00044649		-0.00050915		-0.00028900	
Mg		4.45240952		1.72935549		2.84466455		 0.00043449		 0.00010785		-0.00039080	
Mg		9.31485274		3.29087175		2.84466455		-0.00043459		-0.00010795		-0.00039080	
Mg		11.33602803		0.78077636		7.14512122		 0.00045487		-0.00011396		-0.00039523	
Mg		2.43123423		4.23944948		7.14512122		-0.00045491		 0.00011397		-0.00039532	
Mg		0.00000000		2.51009960		7.12250051		-0.00000004		-0.00000002		 0.00010459	
Mg		6.88362692		0.00000000		2.82204383		 0.00000015		-0.00000001		 0.00011159	
Mg		0.00000000		2.51009960		1.58712268		 0.00000001		-0.00000005		 0.00071562	
Mg		6.88362692		0.00000000		5.88758076		 0.00000012		-0.00000000		 0.00070866	
Mg		0.00000000		0.00000000		5.72136832		 0.00000009		 0.00000013		-0.00023631	
Mg		6.88363113		2.51011362		1.42091024		 0.00000014		 0.00000002		-0.00022596	
Mg		0.00000000		0.00000000		2.99516871		 0.00000016		 0.00000011		-0.00063203	
Mg		6.88363113		2.51011362		7.29562679		 0.00000006		 0.00000002		-0.00064229	
Si		0.00000000		0.00000000		0.05625307		-0.00000006		 0.00000008		-0.00008851	
Si		6.88363113		2.51011362		4.35670834		 0.00000029		-0.00000002		-0.00008839	
Si		5.17497927		0.07356990		0.05619136		-0.00022864		-0.00009477		-0.00025830	
Si		8.59228299		4.94665594		0.05619136		 0.00022905		 0.00009455		-0.00025778	
Si		12.05858656		2.43655213		4.35664664		-0.00014672		 0.00012967		-0.00025775	
Si		1.70867710		2.58367511		4.35664664		 0.00014606		-0.00013102		-0.00025807	
O		5.68927720		3.51992574		8.65795457		-0.00002906		 0.00029424		-0.00040208	
O		8.07798506		1.50030150		8.65795457		 0.00002888		-0.00029408		-0.00040230	
O		12.57290833		4.01041933		4.35749930		-0.00003905		-0.00032612		-0.00040220	
O		1.19435393		1.00980651		4.35749930		 0.00003884		 0.00032690		-0.00040212	
O		1.09616770		3.48224605		0.05554766		 0.00010515		 0.00002198		-0.00013912	
O		12.67109456		1.53797978		0.05554766		-0.00010499		-0.00002198		-0.00013899	
O		7.97979743		4.04807237		4.35600294		 0.00010065		-0.00002230		-0.00013921	
O		5.78746483		0.97215487		4.35600294		-0.00010087		 0.00002224		-0.00013933	
O		3.38805106		0.10801425		2.99039213		 0.00041308		-0.00037105		 0.00068105	
O		10.37921120		4.91221299		2.99039073		-0.00040811		 0.00036921		 0.00068401	
O		10.27172706		2.40212602		7.29082357		 0.00026244		 0.00032318		 0.00076324	
O		3.49553660		2.61809982		7.29082357		-0.00026583		-0.00032442		 0.00076116	
O		3.49592787		2.61724856		1.41444097		 0.00001722		-0.00038569		 0.00055630	
O		10.27133439		2.40297727		1.41443957		-0.00001481		 0.00038664		 0.00055772	
O		10.37960107		4.91306425		5.71487240		-0.00012479		 0.00043027		 0.00063468	
O		3.38765979		0.10716159		5.71487100		 0.00012892		-0.00043178		 0.00063738	
O		1.02092614		0.74048120		1.32042688		-0.00019917		 0.00020921		 0.00010745	
O		12.74633753		4.27974463		1.32042688		 0.00019921		-0.00020931		 0.00010752	
O		7.90455586		1.76963522		5.62088075		-0.00020123		-0.00021187		 0.00011175	
O		5.86270780		3.25059062		5.62088075		 0.00020103		 0.00021188		 0.00011170	
O		5.86404288		3.25102256		3.09148413		-0.00069057		 0.00025186		-0.00001185	
O		7.90321938		1.76920468		3.09148413		 0.00069031		-0.00025178		-0.00001180	
O		12.74767261		4.27931269		7.39193801		-0.00069225		-0.00024908		-0.00000757	
O		1.01958965		0.74091314		7.39193801		 0.00069234		 0.00024910		-0.00000748	
O		5.69795385		0.84692897		1.41531326		 0.00008751		-0.00032591		-0.00020009	
O		8.06930981		4.17329687		1.41531326		-0.00008766		 0.00032603		-0.00020041	
O		12.58158498		1.66320569		5.71576713		 0.00007841		 0.00032555		-0.00019641	
O		1.18567868		3.35702015		5.71576713		-0.00007842		-0.00032535		-0.00019599	
O		1.18568429		3.35558269		2.99654166		-0.00015920		 0.00008007		 0.00001700	
O		12.58157937		1.66464455		2.99654166		 0.00015909		-0.00007992		 0.00001702	
O		8.06931542		4.17473573		7.29699553		-0.00016843		-0.00007967		 0.00002090	
O		5.69794824		0.84549151		7.29699553		 0.00016819		 0.00007950		 0.00002116	
O		3.53923678		0.04903071		0.05496005		 0.00009901		 0.00004036		-0.00026747	
O		10.22802547		4.97119513		0.05496005		-0.00009919		-0.00004036		-0.00026750	
O		10.42288895		2.46109834		4.35541533		 0.00003256		-0.00004593		-0.00026782	
O		3.34437331		2.55912750		4.35541673		-0.00003198		 0.00004616		-0.00026769	
H		4.28613397		2.92237714		0.92000663		-0.00004365		-0.00045229		 0.00060746	
H		9.48112969		2.09784870		0.92000663		 0.00004158		 0.00045147		 0.00060614	
H		11.16972723		4.60796653		5.22048435		 0.00007790		 0.00040624		 0.00053181	
H		2.59753643		0.41225931		5.22048575		-0.00008175		-0.00040476		 0.00052933	
H		2.59551697		0.41631505		3.47866432		 0.00028408		-0.00059550		 0.00024816	
H		11.17174809		4.60391219		3.47866573		-0.00028855		 0.00059727		 0.00024535	
H		9.47910743		2.09379296		7.77914344		 0.00041349		 0.00064494		 0.00016872	
H		4.28815483		2.92643288		7.77914344		-0.00041039		-0.00064373		 0.00017066	
