# total energy = -49447.4957651 eV	

CRYSTAL	
PRIMVEC	
		13.83203911		0.00000000		0.00000000	
		0.00000000		5.04415218		0.00000000	
		0.00000000		0.00000000		8.64094346	
PRIMCOORD
   70 1	
Mg		2.40105038		1.69835824		0.05393630		-0.00003539		-0.00021328		 0.00001645	
Mg		11.43099014		3.34580376		0.05393630		 0.00003532		 0.00021337		 0.00001652	
Mg		9.31706713		0.82372486		4.37440944		-0.00003163		 0.00021309		 0.00001645	
Mg		4.51497198		4.22043714		4.37440944		 0.00003162		-0.00021299		 0.00001638	
Mg		2.44188125		4.25840852		1.57308606		-0.00016202		-0.00045590		 0.00010453	
Mg		11.39015786		0.78575348		1.57308606		 0.00016173		 0.00045580		 0.00010446	
Mg		9.35789941		3.30783097		5.89356060		-0.00015823		 0.00045689		 0.00010341	
Mg		4.47413971		1.73632962		5.89356060		 0.00015845		-0.00045701		 0.00010348	
Mg		4.47242878		1.73711357		2.85648397		 0.00039147		 0.00006796		-0.00009062	
Mg		9.35961174		3.30704843		2.85648397		-0.00039163		-0.00006821		-0.00009046	
Mg		11.38844693		0.78497094		7.17695851		 0.00039509		-0.00006915		-0.00009140	
Mg		2.44359358		4.25919106		7.17695711		-0.00039503		 0.00006894		-0.00009151	
Mg		0.00000000		2.52207890		7.15580190		-0.00000041		-0.00000013		-0.00017488	
Mg		6.91601815		0.00000000		2.83532737		 0.00000046		-0.00000011		-0.00017356	
Mg		0.00000000		2.52207890		1.59519770		-0.00000029		-0.00000010		 0.00054932	
Mg		6.91601956		0.00000000		5.91567224		 0.00000031		-0.00000012		 0.00054797	
Mg		0.00000000		0.00000000		5.74691444		 0.00000009		 0.00000041		 0.00006808	
Mg		6.91601956		2.52208030		1.42643990		-0.00000005		 0.00000043		 0.00006979	
Mg		0.00000000		0.00000000		3.00842700		 0.00000028		 0.00000041		-0.00043359	
Mg		6.91601956		2.52208030		7.32890153		-0.00000027		 0.00000040		-0.00043523	
Si		0.00000000		0.00000000		0.05609179		-0.00000085		 0.00000015		-0.00009725	
Si		6.91601956		2.52208030		4.37656633		 0.00000100		 0.00000017		-0.00009739	
Si		5.20063337		0.07477737		0.05622502		-0.00015336		-0.00001285		-0.00018635	
Si		8.63140574		4.96938603		0.05622362		 0.00015637		 0.00000830		-0.00018505	
Si		12.11665013		2.44730574		4.37669815		-0.00014286		 0.00001462		-0.00018521	
Si		1.71539039		2.59685767		4.37669815		 0.00013974		-0.00001939		-0.00018670	
O		5.71678528		3.54303168		8.69822168		-0.00010965		-0.00012725		-0.00041788	
O		8.11525384		1.50112892		8.69822168		 0.00011005		 0.00013014		-0.00041828	
O		12.63280483		4.02321062		4.37774855		-0.00011187		 0.00012471		-0.00041840	
O		1.19923568		1.02094998		4.37774715		 0.00011157		-0.00012193		-0.00041787	
O		1.10099897		3.50037909		0.05602167		-0.00013764		 0.00019186		-0.00039747	
O		12.73104015		1.54378291		0.05602167		 0.00013859		-0.00019210		-0.00039723	
O		8.01701993		4.06586041		4.37649480		-0.00013946		-0.00019214		-0.00039718	
O		5.81502059		0.97830159		4.37649621		 0.00013844		 0.00019198		-0.00039746	
O		3.40442408		0.10877996		3.00477515		 0.00085445		-0.00050676		 0.00035456	
O		10.42760803		4.93538485		3.00476954		-0.00083099		 0.00049811		 0.00036912	
O		10.32045906		2.41330876		7.32523987		 0.00080727		 0.00049054		 0.00038223	
O		3.51158847		2.63085465		7.32524407		-0.00082745		-0.00049793		 0.00036969	
O		3.51017906		2.62965980		1.42158620		-0.00020071		-0.00013315		 0.00027712	
O		10.32186426		2.41450220		1.42158760		 0.00019030		 0.00012941		 0.00027009	
O		10.42620422		4.93657829		5.74205652		-0.00021895		 0.00013865		 0.00028643	
O		3.40583349		0.10758371		5.74205512		 0.00022818		-0.00014190		 0.00029257	
O		1.02297645		0.74195513		1.32243371		-0.00019793		 0.00009052		 0.00021426	
O		12.80906267		4.30220687		1.32243371		 0.00019853		-0.00009043		 0.00021450	
O		7.93899600		1.78012657		5.64290825		-0.00019888		-0.00009105		 0.00021532	
O		5.89304311		3.26403543		5.64290825		 0.00019814		 0.00009106		 0.00021513	
O		5.89393223		3.26420371		3.10911370		-0.00046317		 0.00012484		-0.00009539	
O		7.93810688		1.77995829		3.10911511		 0.00046209		-0.00012480		-0.00009551	
O		12.80995179		4.30203718		7.42958824		-0.00046248		-0.00012428		-0.00009474	
O		1.02208873		0.74212341		7.42958824		 0.00046341		 0.00012433		-0.00009461	
O		5.72456018		0.85097489		1.41871548		-0.00006449		-0.00033697		 0.00007783	
O		8.10748033		4.19318711		1.41871548		 0.00006418		 0.00033761		 0.00007643	
O		12.64057974		1.67110961		5.73918862		-0.00006572		 0.00033748		 0.00007754	
O		1.19146078		3.37305099		5.73918862		 0.00006585		-0.00033667		 0.00007902	
O		1.19133316		3.37151816		3.01339149		-0.00004660		 0.00017657		-0.00017972	
O		12.64070736		1.67264384		3.01339289		 0.00004697		-0.00017645		-0.00017970	
O		8.10735271		4.19471993		7.33386603		-0.00004841		-0.00017625		-0.00017881	
O		5.72468780		0.84944067		7.33386603		 0.00004805		 0.00017640		-0.00017890	
O		3.56030223		0.04975014		0.05533590		-0.00000847		-0.00006554		-0.00033562	
O		10.27173828		4.99441186		0.05533590		 0.00000641		 0.00006615		-0.00033592	
O		10.47632460		2.47233297		4.37581043		-0.00001740		 0.00006540		-0.00033573	
O		3.35571452		2.57182904		4.37581043		 0.00001967		-0.00006479		-0.00033550	
H		4.29939366		2.93692283		0.92658809		 0.00010468		-0.00040298		 0.00047140	
H		9.53264265		2.10723917		0.92658529		-0.00009474		 0.00040682		 0.00047783	
H		11.21540761		4.62932087		5.24706403		 0.00011952		 0.00039733		 0.00046232	
H		2.61663431		0.41483973		5.24706543		-0.00012828		-0.00039394		 0.00045665	
H		2.61385616		0.41779739		3.49584793		-0.00012227		-0.00043553		 0.00022961	
H		11.21818997		4.62636181		3.49585214		 0.00010085		 0.00044395		 0.00021601	
H		9.52986309		2.10428011		7.81632948		-0.00008050		 0.00045175		 0.00020347	
H		4.30217041		2.93987909		7.81632667		 0.00009900		-0.00044448		 0.00021521	
