# total energy = -49447.7608963 eV	

CRYSTAL	
PRIMVEC	
		14.22918476		0.00000000		0.00000000	
		0.00000000		5.19613027		0.00000000	
		0.00000000		0.00000000		8.88964507	
PRIMCOORD
   70 1	
Mg		2.47961984		1.73208316		0.05634563		 0.00041822		 0.00008460		 0.00001556	
Mg		11.74957053		3.46404150		0.05634563		-0.00041801		-0.00008460		 0.00001555	
Mg		9.59422063		0.86597637		4.50117237		 0.00041316		-0.00008414		 0.00001467	
Mg		4.63497114		4.33014689		4.50117237		-0.00041306		 0.00008411		 0.00001473	
Mg		2.52049839		4.38997327		1.62581490		-0.00040224		-0.00062819		-0.00024047	
Mg		11.70869057		0.80614998		1.62581490		 0.00040240		 0.00062822		-0.00024034	
Mg		9.63509919		3.40421512		6.07063743		-0.00040666		 0.00062710		-0.00023854	
Mg		4.59409259		1.79190814		6.07063743		 0.00040677		-0.00062697		-0.00023853	
Mg		4.59594375		1.79240178		2.93382773		 0.00020260		-0.00019491		-0.00020037	
Mg		9.63324662		3.40372147		2.93382773		-0.00020264		 0.00019498		-0.00020036	
Mg		11.71054314		0.80565774		7.37865027		 0.00019830		 0.00019660		-0.00019786	
Mg		2.51864722		4.39046551		7.37865027		-0.00019798		-0.00019664		-0.00019776	
Mg		0.00000000		2.59806373		7.35987354		 0.00000011		 0.00000009		-0.00033901	
Mg		7.11459659		0.00000000		2.91505100		-0.00000027		 0.00000006		-0.00034047	
Mg		0.00000000		2.59806373		1.64427048		 0.00000018		 0.00000009		-0.00006498	
Mg		7.11459659		0.00000000		6.08909302		-0.00000037		 0.00000005		-0.00006402	
Mg		0.00000000		0.00000000		5.91377339		-0.00000030		-0.00000032		-0.00029849	
Mg		7.11459518		2.59806233		1.46895085		 0.00000001		-0.00000019		-0.00030054	
Mg		0.00000000		0.00000000		3.09147011		-0.00000024		-0.00000032		 0.00015419	
Mg		7.11459518		2.59806233		7.53629265		-0.00000008		-0.00000020		 0.00015684	
Si		0.00000000		0.00000000		0.05693043		 0.00000036		-0.00000015		 0.00016391	
Si		7.11459518		2.59806233		4.50175436		-0.00000073		-0.00000006		 0.00016209	
Si		5.35764748		0.08443570		0.05707347		-0.00002153		-0.00004348		-0.00007319	
Si		8.87154289		5.11168756		0.05707347		 0.00002005		 0.00004552		-0.00007277	
Si		12.47224406		2.51362663		4.50189881		-0.00002638		 0.00003783		-0.00007498	
Si		1.75694631		2.68249662		4.50189881		 0.00002817		-0.00003441		-0.00007540	
O		5.88242975		3.69134389		8.94705512		-0.00018379		-0.00032818		-0.00021693	
O		8.34676062		1.50478077		8.94705512		 0.00018366		 0.00032689		-0.00021712	
O		12.99702353		4.10284170		4.50223118		-0.00018242		 0.00033149		-0.00021720	
O		1.23216544		1.09328296		4.50222978		 0.00018307		-0.00033349		-0.00021692	
O		1.12358322		3.62365425		0.05653916		-0.00007549		-0.00017342		 0.00007874	
O		13.10560715		1.57246901		0.05653916		 0.00007502		 0.00017355		 0.00007885	
O		8.23817840		4.17053414		4.50136309		-0.00007334		 0.00017358		 0.00007957	
O		5.99101197		1.02559052		4.50136309		 0.00007403		-0.00017338		 0.00007943	
O		3.51519264		0.11846633		3.09399443		 0.00015932		-0.00049835		 0.00044333	
O		10.71400194		5.07765692		3.09399723		-0.00017061		 0.00050269		 0.00043590	
O		10.62976959		2.47958758		7.53883239		 0.00021386		 0.00051825		 0.00040854	
O		3.59941938		2.71653568		7.53883099		-0.00020786		-0.00051600		 0.00041265	
O		3.60065770		2.71456110		1.46081693		-0.00049268		-0.00042015		 0.00045036	
O		10.62852987		2.48156076		1.46081413		 0.00050361		 0.00042425		 0.00045748	
O		10.71525428		5.07962589		5.90564368		-0.00048690		 0.00041842		 0.00044686	
O		3.51394310		0.11649596		5.90564788		 0.00046673		-0.00041081		 0.00043385	
O		1.03707337		0.75085335		1.33924428		-0.00022250		-0.00030685		-0.00026117	
O		13.19211700		4.44526990		1.33924428		 0.00022203		 0.00030688		-0.00026129	
O		8.15166855		1.84720757		5.78406822		-0.00022115		 0.00030729		-0.00026159	
O		6.07752181		3.34891568		5.78406822		 0.00022189		-0.00030739		-0.00026159	
O		6.07804771		3.34826777		3.21885571		-0.00008995		 0.00009220		 0.00025209	
O		8.15114125		1.84785548		3.21885571		 0.00009057		-0.00009228		 0.00025214	
O		13.19264570		4.44591781		7.66367965		-0.00009035		-0.00009309		 0.00025077	
O		1.03654607		0.75020545		7.66367965		 0.00009004		 0.00009307		 0.00025061	
O		5.88495687		0.87683235		1.44014836		 0.00009328		-0.00007438		 0.00011512	
O		8.34423349		4.31929091		1.44014836		-0.00009298		 0.00007429		 0.00011529	
O		12.99955206		1.72122578		5.88497510		 0.00009417		 0.00007514		 0.00011380	
O		1.22963831		3.47489748		5.88497370		-0.00009421		-0.00007542		 0.00011349	
O		1.22920637		3.47483577		3.11871734		 0.00014784		-0.00001904		-0.00025131	
O		12.99998400		1.72128748		3.11871734		-0.00014784		 0.00001854		-0.00025202	
O		8.34380156		4.31935402		7.56354268		 0.00014886		 0.00001709		-0.00025533	
O		5.88538881		0.87676924		7.56354268		-0.00014847		-0.00001730		-0.00025478	
O		3.68972692		0.05983760		0.05571034		 0.00029281		-0.00028962		 0.00007297	
O		10.53946345		5.13628565		0.05571034		-0.00029200		 0.00028933		 0.00007285	
O		10.80432070		2.53821912		4.50053568		 0.00029811		 0.00029106		 0.00007320	
O		3.42486966		2.65790414		4.50053568		-0.00029943		-0.00029161		 0.00007323	
H		4.38679123		3.02464996		0.95997503		-0.00013598		 0.00003892		 0.00021777	
H		9.84240335		2.17147470		0.95997783		 0.00012573		-0.00004293		 0.00021111	
H		11.50138781		4.76953563		5.40479897		-0.00014012		-0.00003722		 0.00022034	
H		2.72779554		0.42659043		5.40479476		 0.00015877		 0.00002986		 0.00023248	
H		2.72934099		0.43381420		3.59243683		 0.00039770		-0.00055740		-0.00020534	
H		11.49984657		4.76231046		3.59243402		-0.00038707		 0.00055316		-0.00019842	
H		9.84395020		2.16425094		8.03725095		 0.00034907		 0.00053784		-0.00017373	
H		4.38524298		3.03187372		8.03725235		-0.00035489		-0.00054013		-0.00017753	
