
     Program PWSCF v.6.6 starts on  4Feb2024 at 13:33:50 

     This program is part of the open-source Quantum ESPRESSO suite
     for quantum simulation of materials; please cite
         "P. Giannozzi et al., J. Phys.:Condens. Matter 21 395502 (2009);
         "P. Giannozzi et al., J. Phys.:Condens. Matter 29 465901 (2017);
          URL http://www.quantum-espresso.org", 
     in publications or presentations arising from this work. More details at
     http://www.quantum-espresso.org/quote

     Parallel version (MPI & OpenMP), running on      16 processor cores
     Number of MPI processes:                16
     Threads/MPI process:                     1

     MPI processes distributed on     2 nodes
     R & G space division:  proc/nbgrp/npool/nimage =      16
     Fft bands division:     nmany     =       1
     Waiting for input...
     Reading input from standard input

     Current dimensions of program PWSCF are:
     Max number of different atomic species (ntypx) = 10
     Max number of k-points (npk) =  40000
     Max angular momentum in pseudopotentials (lmaxx) =  3

     IMPORTANT: XC functional enforced from input :
     Exchange-correlation= PBE
                           (   1   4   3   4   0   0   0)
     Any further DFT definition will be discarded
     Please, verify this is what you really want


     --------------------------------------------
     Parameters for DFT-D3 Dispersion Correction:
     --------------------------------------------
       Reference C6 values for interpolation: 

         atom   Coordination number   C6
         O          0.000            31.01
         O          0.993            25.63
         O          1.989            20.74
         Mg         0.000          1366.75
         Mg         0.963           902.54
         Mg         1.950           351.12

       Values used:

         atom   Coordination number  R0_AB[au]  C6      C8
         Mg        15.543            3.292    351.12  31436.69
         Mg        15.543            3.292    351.12  31436.69
         Mg        15.543            3.292    351.12  31436.69
         Mg        15.543            3.292    351.12  31436.69
         O          5.585            2.345     20.74    418.58
         O          5.585            2.345     20.74    418.58
         O          5.585            2.345     20.74    418.58
         O          5.585            2.345     20.74    418.58

         Molecular C6 ( Ry / a.u.^6 ) =      8251.69


     Subspace diagonalization in iterative solution of the eigenvalue problem:
     a serial algorithm will be used

     Found symmetry operation: I + (  0.0000 -0.5000 -0.5000)
     This is a supercell, fractional translations are disabled
     Message from routine setup:
     using ibrav=0 with symmetry is DISCOURAGED, use correct ibrav instead
 
     Parallelization info
     --------------------
     sticks:   dense  smooth     PW     G-vecs:    dense   smooth      PW
     Min         136     136     37                 4572     4572     669
     Max         137     137     38                 4574     4574     672
     Sum        2177    2177    607                73167    73167   10749
 


     bravais-lattice index     =            0
     lattice parameter (alat)  =       8.5545  a.u.
     unit-cell volume          =     541.7024 (a.u.)^3
     number of atoms/cell      =            8
     number of atomic types    =            2
     number of electrons       =        64.00
     number of Kohn-Sham states=           38
     kinetic-energy cutoff     =     100.0000  Ry
     charge density cutoff     =     400.0000  Ry
     convergence threshold     =      1.0E-06
     mixing beta               =       0.5000
     number of iterations used =            8  plain     mixing
     Exchange-correlation= PBE
                           (   1   4   3   4   0   0   0)
     nstep                     =          100


     celldm(1)=   8.554459  celldm(2)=   0.000000  celldm(3)=   0.000000
     celldm(4)=   0.000000  celldm(5)=   0.000000  celldm(6)=   0.000000

     crystal axes: (cart. coord. in units of alat)
               a(1) = (   1.000000   0.000000   0.000000 )  
               a(2) = (   0.000000   0.930233   0.000000 )  
               a(3) = (   0.000000   0.000000   0.930233 )  

     reciprocal axes: (cart. coord. in units 2 pi/alat)
               b(1) = (  1.000000  0.000000  0.000000 )  
               b(2) = (  0.000000  1.075000  0.000000 )  
               b(3) = (  0.000000  0.000000  1.075000 )  


     PseudoPot. # 1 for Mg read from file:
     ./Mg.upf
     MD5 check sum: 4c04d8c6e0476e83eaecaf72fa8acc4d
     Pseudo is Norm-conserving, Zval = 10.0
     Generated using ONCVPSP code by D. R. Hamann
     Using radial grid of 1510 points,  4 beta functions with: 
                l(1) =   0
                l(2) =   0
                l(3) =   1
                l(4) =   1

     PseudoPot. # 2 for O  read from file:
     ./O.upf
     MD5 check sum: 3e3f909f7470e8921608ab6b1f57bbae
     Pseudo is Norm-conserving + core correction, Zval =  6.0
     Generated using ONCVPSP code by D. R. Hamann
     Using radial grid of  936 points,  5 beta functions with: 
                l(1) =   0
                l(2) =   0
                l(3) =   1
                l(4) =   1
                l(5) =   2

     atomic species   valence    mass     pseudopotential
        Mg            10.00    24.30500     Mg( 1.00)
        O              6.00    15.99900     O ( 1.00)

     16 Sym. Ops., with inversion, found



   Cartesian axes

     site n.     atom                  positions (alat units)
         1           Mg  tau(   1) = (   0.0000000   0.0000000   0.0000000  )
         2           Mg  tau(   2) = (   0.0000000   0.4651163   0.4651163  )
         3           Mg  tau(   3) = (   0.4999999   0.0000000   0.4651163  )
         4           Mg  tau(   4) = (   0.4999999   0.4651163   0.0000000  )
         5           O   tau(   5) = (   0.4999999   0.4651163   0.4651163  )
         6           O   tau(   6) = (   0.4999999   0.0000000   0.0000000  )
         7           O   tau(   7) = (   0.0000000   0.4651163   0.0000000  )
         8           O   tau(   8) = (   0.0000000   0.0000000   0.4651163  )

     number of k points=    18  Gaussian smearing, width (Ry)=  0.0050
                       cart. coord. in units 2pi/alat
        k(    1) = (   0.0000000   0.0000000   0.0000000), wk =   0.0160000
        k(    2) = (   0.0000000   0.0000000   0.2150000), wk =   0.0640000
        k(    3) = (   0.0000000   0.0000000   0.4300000), wk =   0.0640000
        k(    4) = (   0.0000000   0.2150000   0.2150000), wk =   0.0640000
        k(    5) = (   0.0000000   0.2150000   0.4300000), wk =   0.1280000
        k(    6) = (   0.0000000   0.4300000   0.4300000), wk =   0.0640000
        k(    7) = (   0.2000000   0.0000000   0.0000000), wk =   0.0320000
        k(    8) = (   0.2000000   0.0000000   0.2150000), wk =   0.1280000
        k(    9) = (   0.2000000   0.0000000   0.4300000), wk =   0.1280000
        k(   10) = (   0.2000000   0.2150000   0.2150000), wk =   0.1280000
        k(   11) = (   0.2000000   0.2150000   0.4300000), wk =   0.2560000
        k(   12) = (   0.2000000   0.4300000   0.4300000), wk =   0.1280000
        k(   13) = (   0.4000000   0.0000000   0.0000000), wk =   0.0320000
        k(   14) = (   0.4000000   0.0000000   0.2150000), wk =   0.1280000
        k(   15) = (   0.4000000   0.0000000   0.4300000), wk =   0.1280000
        k(   16) = (   0.4000000   0.2150000   0.2150000), wk =   0.1280000
        k(   17) = (   0.4000000   0.2150000   0.4300000), wk =   0.2560000
        k(   18) = (   0.4000000   0.4300000   0.4300000), wk =   0.1280000

     Dense  grid:    73167 G-vectors     FFT dimensions: (  60,  54,  54)

     Estimated max dynamical RAM per process >      13.88 MB

     Estimated total dynamical RAM >     222.16 MB

     Initial potential from superposition of free atoms

     starting charge   63.99678, renormalised to   64.00000
     Starting wfcs are   36 randomized atomic wfcs +    2 random wfcs

     total cpu time spent up to now is        1.0 secs

     Self-consistent Calculation

     iteration #  1     ecut=   100.00 Ry     beta= 0.50
     Davidson diagonalization with overlap
     ethr =  1.00E-02,  avg # of iterations =  3.7

     total cpu time spent up to now is        6.3 secs

     total energy              =    -607.98076907 Ry
     estimated scf accuracy    <       1.63520918 Ry

     iteration #  2     ecut=   100.00 Ry     beta= 0.50
     Davidson diagonalization with overlap
     ethr =  2.56E-03,  avg # of iterations =  2.2

     total cpu time spent up to now is        7.7 secs

     total energy              =    -608.45080809 Ry
     estimated scf accuracy    <       0.30633282 Ry

     iteration #  3     ecut=   100.00 Ry     beta= 0.50
     Davidson diagonalization with overlap
     ethr =  4.79E-04,  avg # of iterations =  2.8

     total cpu time spent up to now is        9.0 secs

     total energy              =    -608.49669465 Ry
     estimated scf accuracy    <       0.01409298 Ry

     iteration #  4     ecut=   100.00 Ry     beta= 0.50
     Davidson diagonalization with overlap
     ethr =  2.20E-05,  avg # of iterations =  4.9

     total cpu time spent up to now is       10.5 secs

     total energy              =    -608.49742594 Ry
     estimated scf accuracy    <       0.00202258 Ry

     iteration #  5     ecut=   100.00 Ry     beta= 0.50
     Davidson diagonalization with overlap
     ethr =  3.16E-06,  avg # of iterations =  4.4

     total cpu time spent up to now is       12.0 secs

     total energy              =    -608.49786720 Ry
     estimated scf accuracy    <       0.00003848 Ry

     iteration #  6     ecut=   100.00 Ry     beta= 0.50
     Davidson diagonalization with overlap
     ethr =  6.01E-08,  avg # of iterations =  2.0

     total cpu time spent up to now is       13.2 secs

     total energy              =    -608.49787061 Ry
     estimated scf accuracy    <       0.00000637 Ry

     iteration #  7     ecut=   100.00 Ry     beta= 0.50
     Davidson diagonalization with overlap
     ethr =  9.95E-09,  avg # of iterations =  2.7

     total cpu time spent up to now is       14.5 secs

     total energy              =    -608.49787244 Ry
     estimated scf accuracy    <       0.00000216 Ry

     iteration #  8     ecut=   100.00 Ry     beta= 0.50
     Davidson diagonalization with overlap
     ethr =  3.38E-09,  avg # of iterations =  2.0

     total cpu time spent up to now is       15.7 secs

     End of self-consistent calculation

          k = 0.0000 0.0000 0.0000 (  9179 PWs)   bands (ev):

   -65.3859 -65.3793 -65.3770 -65.3770 -32.2199 -32.1873 -32.1873 -32.1760
   -32.1760 -32.1693 -32.1497 -32.1497 -32.1358 -32.1358 -32.1190 -32.1190
    -9.6577  -8.4437  -8.2550  -8.2548   3.3105   3.5092   3.5092   5.6471
     5.6471   6.0995   6.0997   6.1384   6.1384   7.1440   7.1440   7.2834
    11.2743  16.1330  16.1330  16.4663  16.4663  16.5605

          k = 0.0000 0.0000 0.2150 (  9155 PWs)   bands (ev):

   -65.3850 -65.3791 -65.3778 -65.3772 -32.2168 -32.1903 -32.1855 -32.1721
   -32.1713 -32.1710 -32.1490 -32.1468 -32.1396 -32.1378 -32.1252 -32.1219
    -9.5228  -8.4044  -8.3854  -8.2507   3.5075   3.6824   3.6973   5.5379
     5.7238   5.7668   5.7903   5.9263   6.1982   6.4475   6.9716   7.1532
    12.1043  16.3127  16.4648  16.5937  17.0312  17.1587

          k = 0.0000 0.0000 0.4300 (  9150 PWs)   bands (ev):

   -65.3828 -65.3800 -65.3785 -65.3778 -32.2086 -32.1985 -32.1810 -32.1754
   -32.1620 -32.1583 -32.1496 -32.1466 -32.1423 -32.1407 -32.1390 -32.1296
    -9.1689  -8.7329  -8.3217  -8.2624   4.0710   4.2340   4.2508   4.8955
     5.0145   5.2381   5.4143   5.5580   6.0993   6.4688   6.5558   6.8320
    13.7270  15.3365  17.5282  18.2846  18.3163  18.4002

          k = 0.0000 0.2150 0.2150 (  9160 PWs)   bands (ev):

   -65.3843 -65.3790 -65.3779 -65.3779 -32.2138 -32.1885 -32.1885 -32.1728
   -32.1711 -32.1711 -32.1495 -32.1437 -32.1437 -32.1361 -32.1323 -32.1188
    -9.3964  -8.3792  -8.3638  -8.3636   3.7000   3.7444   3.7444   5.0930
     5.7568   5.7569   5.7645   5.8417   5.8419   6.2493   6.9942   7.0683
    12.6835  16.7748  16.7748  16.8592  17.1668  18.0098

          k = 0.0000 0.2150 0.4300 (  9152 PWs)   bands (ev):

   -65.3823 -65.3799 -65.3786 -65.3782 -32.2059 -32.1962 -32.1836 -32.1776
   -32.1683 -32.1648 -32.1607 -32.1518 -32.1373 -32.1326 -32.1323 -32.1227
    -9.0679  -8.6713  -8.3362  -8.3302   3.9441   4.0535   4.2492   4.3782
     4.7745   5.0478   5.8651   6.1358   6.1665   6.2530   6.6043   6.7765
    14.0542  15.6300  17.6419  17.7167  17.8111  18.2855

          k = 0.0000 0.4300 0.4300 (  9140 PWs)   bands (ev):

   -65.3810 -65.3795 -65.3795 -65.3790 -32.1990 -32.1904 -32.1904 -32.1833
   -32.1715 -32.1715 -32.1703 -32.1652 -32.1256 -32.1256 -32.1252 -32.1200
    -8.8145  -8.5301  -8.5299  -8.4005   3.7785   3.7787   3.8437   4.1002
     4.7533   5.4726   5.4728   6.0611   6.4983   6.4985   6.5292   6.8455
    14.9747  16.3103  16.3103  17.0604  17.9529  18.1765

          k = 0.2000 0.0000 0.0000 (  9155 PWs)   bands (ev):

   -65.3853 -65.3799 -65.3770 -65.3770 -32.2153 -32.1875 -32.1875 -32.1744
   -32.1735 -32.1735 -32.1522 -32.1522 -32.1342 -32.1342 -32.1206 -32.1206
    -9.5479  -8.5662  -8.2449  -8.2446   3.5505   3.6665   3.6665   5.3736
     5.3736   5.9966   5.9968   6.2229   6.2229   6.5794   7.0343   7.0343
    12.1016  16.3301  16.6284  16.6284  16.9760  16.9760

          k = 0.2000 0.0000 0.2150 (  9149 PWs)   bands (ev):

   -65.3845 -65.3797 -65.3778 -65.3772 -32.2131 -32.1909 -32.1879 -32.1762
   -32.1697 -32.1675 -32.1504 -32.1492 -32.1379 -32.1361 -32.1258 -32.1236
    -9.4195  -8.5144  -8.3620  -8.2527   3.6700   3.7607   3.8511   4.9941
     5.5054   5.8885   5.9318   6.0411   6.0653   6.1465   6.8411   7.1033
    12.6980  16.6557  16.7171  16.7911  16.9198  17.5464

          k = 0.2000 0.0000 0.4300 (  9161 PWs)   bands (ev):

   -65.3824 -65.3798 -65.3789 -65.3780 -32.2069 -32.1986 -32.1857 -32.1809
   -32.1598 -32.1543 -32.1477 -32.1461 -32.1412 -32.1409 -32.1388 -32.1315
    -9.0851  -8.6792  -8.3983  -8.2973   3.9849   4.1505   4.3766   4.4309
     4.9295   5.1376   5.8566   5.8721   5.9096   6.3776   6.5002   6.8826
    14.0585  15.5920  17.1889  17.4625  18.6502  18.9923

          k = 0.2000 0.2150 0.2150 (  9157 PWs)   bands (ev):

   -65.3838 -65.3795 -65.3779 -65.3779 -32.2111 -32.1913 -32.1913 -32.1785
   -32.1672 -32.1672 -32.1473 -32.1450 -32.1450 -32.1359 -32.1310 -32.1201
    -9.3000  -8.4763  -8.3522  -8.3519   3.7212   3.7460   3.7461   5.3152
     5.3692   5.3694   5.3845   6.1328   6.1330   6.3198   6.9812   6.9882
    13.0984  16.5401  16.5401  16.7760  17.6362  17.6362

          k = 0.2000 0.2150 0.4300 (  9147 PWs)   bands (ev):

   -65.3820 -65.3797 -65.3790 -65.3784 -32.2058 -32.1985 -32.1895 -32.1841
   -32.1644 -32.1600 -32.1575 -32.1490 -32.1372 -32.1337 -32.1314 -32.1238
    -8.9925  -8.6279  -8.3988  -8.3508   3.7154   3.7471   3.8526   4.4239
     5.0991   5.2084   6.0683   6.0802   6.2286   6.3852   6.6722   6.7485
    14.1834  15.5666  16.7854  16.9340  18.0196  18.4357

          k = 0.2000 0.4300 0.4300 (  9134 PWs)   bands (ev):

   -65.3808 -65.3795 -65.3795 -65.3792 -32.2026 -32.1970 -32.1970 -32.1914
   -32.1651 -32.1651 -32.1648 -32.1594 -32.1257 -32.1257 -32.1247 -32.1205
    -8.7639  -8.5162  -8.5159  -8.4274   3.4089   3.4485   3.4487   3.7328
     5.3908   5.8627   5.8628   6.3737   6.5055   6.5057   6.5584   6.8143
    14.7199  15.7255  15.7255  16.2006  18.4214  18.6492

          k = 0.4000 0.0000 0.0000 (  9112 PWs)   bands (ev):

   -65.3836 -65.3816 -65.3770 -65.3770 -32.2031 -32.1878 -32.1878 -32.1875
   -32.1669 -32.1669 -32.1588 -32.1588 -32.1300 -32.1300 -32.1248 -32.1248
    -9.2546  -8.8799  -8.2283  -8.2281   4.1124   4.1124   4.2516   4.7517
     4.7517   5.3350   5.8370   5.8372   6.4541   6.4541   6.7628   6.7628
    13.7041  15.2920  17.7755  17.7755  17.9398  18.1243

          k = 0.4000 0.0000 0.2150 (  9145 PWs)   bands (ev):

   -65.3830 -65.3811 -65.3776 -65.3774 -32.2028 -32.1916 -32.1907 -32.1889
   -32.1634 -32.1606 -32.1555 -32.1544 -32.1335 -32.1322 -32.1281 -32.1280
    -9.1453  -8.7995  -8.3109  -8.2689   3.9950   4.1740   4.2859   4.4058
     4.9064   4.9934   6.0962   6.1214   6.1580   6.4137   6.5200   6.8192
    14.0562  15.5916  17.2850  17.4795  17.9529  18.2265

          k = 0.4000 0.0000 0.4300 (  9159 PWs)   bands (ev):

   -65.3813 -65.3800 -65.3793 -65.3786 -32.2013 -32.1975 -32.1931 -32.1917
   -32.1541 -32.1487 -32.1470 -32.1461 -32.1427 -32.1381 -32.1370 -32.1365
    -8.8676  -8.6044  -8.5463  -8.3996   3.9956   4.0216   4.0467   4.3818
     4.7773   5.3406   5.4795   5.9490   6.3648   6.3937   6.5213   6.7835
    14.9512  16.1584  16.1805  16.7044  18.4249  18.7077

          k = 0.4000 0.2150 0.2150 (  9135 PWs)   bands (ev):

   -65.3824 -65.3808 -65.3779 -65.3779 -32.2031 -32.1947 -32.1947 -32.1909
   -32.1611 -32.1611 -32.1480 -32.1480 -32.1421 -32.1375 -32.1276 -32.1235
    -9.0464  -8.7312  -8.3332  -8.3329   3.7319   3.7320   3.9629   4.5446
     5.1230   5.1232   6.0178   6.2341   6.2343   6.5112   6.6495   6.7632
    14.1932  15.5883  16.7594  16.7595  18.4124  18.4125

          k = 0.4000 0.2150 0.4300 (  9139 PWs)   bands (ev):

   -65.3810 -65.3799 -65.3793 -65.3788 -32.2030 -32.2005 -32.1974 -32.1952
   -32.1579 -32.1556 -32.1513 -32.1475 -32.1368 -32.1358 -32.1291 -32.1262
    -8.7993  -8.5715  -8.5241  -8.4175   3.4707   3.5391   3.5866   3.8666
     5.5131   5.8363   5.8493   6.3744   6.4051   6.4806   6.5071   6.7486
    14.7206  15.6683  15.7220  16.0807  18.6047  18.7868

          k = 0.4000 0.4300 0.4300 (  9135 PWs)   bands (ev):

   -65.3803 -65.3797 -65.3795 -65.3795 -32.2056 -32.2039 -32.2039 -32.2016
   -32.1582 -32.1582 -32.1570 -32.1547 -32.1259 -32.1259 -32.1234 -32.1218
    -8.6411  -8.5117  -8.4934  -8.4932   3.0666   3.0667   3.0892   3.2305
     6.2232   6.3473   6.3474   6.5186   6.5188   6.6101   6.6358   6.7335
    14.5657  15.0806  15.0806  15.1112  18.8547  18.8547

     the Fermi energy is     8.5471 ev

!    total energy              =    -608.49787261 Ry
     estimated scf accuracy    <       0.00000009 Ry
     smearing contrib. (-TS)   =      -0.00000000 Ry
     internal energy E=F+TS    =    -608.49787261 Ry

     The total energy is F=E-TS. E is the sum of the following terms:
     one-electron contribution =    -312.45462248 Ry
     hartree contribution      =     171.30621853 Ry
     xc contribution           =     -97.71800572 Ry
     ewald contribution        =    -369.53160676 Ry
     DFT-D3 Dispersion         =      -0.09985618 Ry

     convergence has been achieved in   8 iterations

     Forces acting on atoms (cartesian axes, Ry/au):

     atom    1 type  1   force =     0.00000000    0.00000000    0.00000000
     atom    2 type  1   force =     0.00000000    0.00000000    0.00000000
     atom    3 type  1   force =     0.00000000    0.00000000    0.00000000
     atom    4 type  1   force =     0.00000000    0.00000000    0.00000000
     atom    5 type  2   force =     0.00000000    0.00000000    0.00000000
     atom    6 type  2   force =     0.00000000    0.00000000    0.00000000
     atom    7 type  2   force =     0.00000000    0.00000000    0.00000000
     atom    8 type  2   force =     0.00000000    0.00000000    0.00000000

     Total force =     0.000000     Total SCF correction =     0.000000

     BFGS Geometry Optimization

     bfgs converged in   1 scf cycles and   0 bfgs steps
     (criteria: energy <  1.0E-04 Ry, force <  1.0E-03 Ry/Bohr)

     End of BFGS Geometry Optimization

     Final energy   =    -608.4978726132 Ry
Begin final coordinates

ATOMIC_POSITIONS (angstrom)
Mg            0.0000000000        0.0000000000        0.0000000000
Mg            0.0000000000        2.1055000000        2.1055000000
Mg            2.2634120000        0.0000000000        2.1055000000
Mg            2.2634120000        2.1055000000        0.0000000000
O             2.2634120000        2.1055000000        2.1055000000
O             2.2634120000        0.0000000000        0.0000000000
O             0.0000000000        2.1055000000        0.0000000000
O             0.0000000000        0.0000000000        2.1055000000
End final coordinates


 
     init_run     :      0.75s CPU      0.79s WALL (       1 calls)
     electrons    :     14.15s CPU     14.69s WALL (       1 calls)
     forces       :      3.87s CPU      3.89s WALL (       1 calls)

     Called by init_run:
     wfcinit      :      0.46s CPU      0.49s WALL (       1 calls)
     potinit      :      0.09s CPU      0.10s WALL (       1 calls)
     hinit0       :      0.14s CPU      0.15s WALL (       1 calls)

     Called by electrons:
     c_bands      :      9.07s CPU      9.48s WALL (       8 calls)
     sum_band     :      1.43s CPU      1.53s WALL (       8 calls)
     v_of_rho     :      0.09s CPU      0.10s WALL (       9 calls)
     mix_rho      :      0.01s CPU      0.02s WALL (       8 calls)

     Called by c_bands:
     init_us_2    :      0.13s CPU      0.14s WALL (     324 calls)
     cegterg      :      8.71s CPU      9.08s WALL (     144 calls)

     Called by *egterg:
     cdiaghg      :      1.08s CPU      1.09s WALL (     589 calls)
     h_psi        :      7.21s CPU      7.57s WALL (     607 calls)
     g_psi        :      0.02s CPU      0.02s WALL (     445 calls)

     Called by h_psi:
     h_psi:calbec :      0.31s CPU      0.33s WALL (     607 calls)
     vloc_psi     :      6.62s CPU      6.96s WALL (     607 calls)
     add_vuspsi   :      0.24s CPU      0.24s WALL (     607 calls)

     General routines
     calbec       :      0.34s CPU      0.36s WALL (     679 calls)
     fft          :      0.22s CPU      0.22s WALL (     100 calls)
     ffts         :      0.00s CPU      0.01s WALL (       8 calls)
     fftw         :      7.44s CPU      7.83s WALL (   33438 calls)
 
     Parallel routines
     fft_scatt_xy :      0.91s CPU      0.96s WALL (   33546 calls)
     fft_scatt_yz :      4.89s CPU      5.17s WALL (   33546 calls)
 
     PWSCF        :     18.94s CPU     19.57s WALL

 
   This run was terminated on:  13:34:10   4Feb2024            

=------------------------------------------------------------------------------=
   JOB DONE.
=------------------------------------------------------------------------------=
