# total energy = -49443.5282509 eV	

CRYSTAL	
PRIMVEC	
		14.02399962		0.00000000		0.00000000	
		0.00000000		5.10899916		0.40871544	
		0.00000000		0.69863359		8.73299700	
PRIMCOORD
   70 1	
Mg		2.42755433		1.67894342		0.18030376		 0.00011348		 0.00056810		-0.00031085	
Mg		11.59644529		3.43746181		0.32098551		 0.00039748		-0.00006490		-0.00068685	
Mg		9.43955414		1.23228183		4.48312488		-0.00039748		-0.00006490		-0.00068685	
Mg		4.58444548		4.58276400		4.75116419		-0.00011348		 0.00056810		-0.00031085	
Mg		2.48925993		4.39250320		1.87163037		-0.00023933		-0.00010992		 0.00065579	
Mg		11.53473969		0.96130030		1.59713301		-0.00042006		-0.00000372		 0.00045896	
Mg		9.50125974		3.86511948		6.16799344		 0.00042006		-0.00000372		 0.00045896	
Mg		4.52273988		2.18732462		6.03376974		 0.00023933		-0.00010992		 0.00065579	
Mg		4.54377588		1.99472462		2.97269665		-0.00087563		-0.00005283		 0.00040283	
Mg		9.48022374		3.56727356		3.09850034		-0.00052876		-0.00021338		-0.00039386	
Mg		11.55577569		1.36209358		7.26064112		 0.00052876		-0.00021338		-0.00039386	
Mg		2.46822393		4.89854380		7.54355708		 0.00087563		-0.00005283		 0.00040283	
Mg		0.00000000		3.13339345		7.44052415		-0.00055182		-0.00047833		 0.00019571	
Mg		7.01199981		0.22957287		2.86966373		 0.00055182		-0.00047833		 0.00019571	
Mg		0.00000000		2.68514576		1.83743144		 0.00020392		-0.00000231		 0.00024172	
Mg		7.01199981		0.47996578		5.99957082		-0.00020392		-0.00000231		 0.00024172	
Mg		0.00000000		0.46284949		5.78561226		 0.00055479		-0.00030992		-0.00015214	
Mg		7.01199981		2.66802947		1.62347289		-0.00055479		-0.00030992		-0.00015214	
Mg		0.00000000		0.24137968		3.01725090		-0.00067043		-0.00038182		 0.00064320	
Mg		7.01199981		3.14520026		7.58811132		 0.00067043		-0.00038182		 0.00064320	
Si		0.00000000		0.00537961		0.06724368		 0.00052535		 0.00038906		 0.00026594	
Si		7.01199981		2.90920019		4.63810410		-0.00052535		 0.00038906		 0.00026594	
Si		5.28143826		0.07560058		0.05030128		-0.00023039		 0.00019287		-0.00000826	
Si		8.74256136		5.04052558		0.44749461		 0.00017602		 0.00004707		 0.00001432	
Si		12.29343807		2.83534560		4.60963538		-0.00017602		 0.00004707		 0.00001432	
Si		1.73056155		2.97941976		4.62116031		 0.00023039		 0.00019287		-0.00000826	
O		5.82416704		4.31542730		8.96680932		-0.00025286		 0.00024763		 0.00055756	
O		8.19983258		2.18190855		8.79612743		-0.00005331		-0.00008010		 0.00005889	
O		12.83616825		4.38708994		4.63398806		 0.00005331		-0.00008010		 0.00005889	
O		1.18783277		1.41160812		4.39595030		 0.00025286		 0.00024763		 0.00055756	
O		1.09807917		3.54454066		0.32694852		 0.00008392		-0.00040641		-0.00025514	
O		12.92592045		1.57144525		0.16910139		-0.00008988		-0.00029149		-0.00010909	
O		8.11007898		4.47526583		4.73996041		 0.00008988		-0.00029149		-0.00010909	
O		5.91392064		1.33936068		4.48908929		-0.00008392		-0.00040641		-0.00025514	
O		3.49898791		0.35349875		3.02274971		 0.00068166		 0.00090321		 0.00080280	
O		10.52501171		5.23770301		3.41348638		-0.00035470		 0.00013110		-0.00089109	
O		10.51098912		3.03252303		7.57562576		 0.00035470		 0.00013110		-0.00089109	
O		3.51301190		3.25731933		7.59361013		-0.00068166		 0.00090321		 0.00080280	
O		3.57892470		2.72898758		1.62401141		-0.00022663		 0.00077735		-0.00006336	
O		10.44507492		2.60637155		1.61420162		 0.00003537		 0.00007266		-0.00028578	
O		10.59092451		5.51019213		6.18506065		-0.00003537		 0.00007266		-0.00028578	
O		3.43307511		0.52380761		5.78615078		 0.00022663		 0.00077735		-0.00006336	
O		1.06582397		0.84265866		1.39587740		 0.00053867		 0.00014470		 0.00043711	
O		12.95817705		4.48026539		1.68688661		-0.00007714		-0.00043940		-0.00079893	
O		8.07782378		2.27508541		5.84902739		 0.00007714		-0.00043940		-0.00079893	
O		5.94617584		3.74647784		5.96673783		-0.00053867		 0.00014470		 0.00043711	
O		6.02751504		3.55836131		3.42491454		-0.00060975		 0.00052479		 0.00024255	
O		7.99648318		2.05631522		3.30475130		-0.00004666		-0.00019334		 0.00053048	
O		13.03951625		4.96013440		7.87561033		 0.00004666		-0.00019334		 0.00053048	
O		0.98448477		1.35318133		7.58705391		 0.00060975		 0.00052479		 0.00024255	
O		5.81294784		0.89339048		1.45894052		-0.00014050		 0.00009808		-0.00026387	
O		8.21105178		4.43903623		1.74259134		-0.00020255		-0.00019694		-0.00052892	
O		12.82494765		2.23385625		5.90473212		 0.00020255		-0.00019694		-0.00052892	
O		1.19905197		3.79720966		6.02980095		 0.00014050		 0.00009808		-0.00026387	
O		1.24673357		3.74272221		3.31818349		-0.00016541		 0.00024454		 0.00017682	
O		12.77726605		1.85239225		3.16695709		-0.00029307		 0.00044147		-0.00020211	
O		8.25873338		4.75621142		7.73781752		 0.00029307		 0.00044147		-0.00020211	
O		5.76526624		1.53754223		7.48032427		 0.00016541		 0.00024454		 0.00017682	
O		3.64343510		0.02941394		0.06309257		-0.00012540		-0.00039075		-0.00032549	
O		10.38056592		5.08936696		0.46788831		-0.00006659		-0.00035531		 0.00028826	
O		10.65543491		2.88418698		4.63002908		 0.00006659		-0.00035531		 0.00028826	
O		3.36856471		2.93323452		4.63395300		 0.00012540		-0.00039075		-0.00032549	
H		4.20719989		3.13526426		1.11853177		 0.00001965		-0.00003487		-0.00020177	
H		9.81679973		2.11346442		1.03678728		 0.00001077		-0.00068174		-0.00030899	
H		11.21919970		5.01728360		5.60764771		-0.00001077		-0.00068174		-0.00030899	
H		2.80479992		0.93008428		5.28067255		-0.00001965		-0.00003487		-0.00020177	
H		3.78647990		1.23400819		4.00341855		-0.00006561		 0.00060286		-0.00020007	
H		10.23751972		4.50376821		4.26499980		-0.00007587		-0.00069804		 0.00001360	
H		10.79847971		2.29858823		8.42713917		 0.00007587		-0.00069804		 0.00001360	
H		3.22551991		4.13782737		8.57427898		 0.00006561		 0.00060286		-0.00020007	
