# total energy = -49443.5282592 eV	

CRYSTAL	
PRIMVEC	
		14.02399962		0.00000000		0.00000000	
		0.00000000		5.10899916		-0.40871544	
		0.00000000		-0.69863359		8.73299700	
PRIMCOORD
   70 1	
Mg		2.42755433		1.67153734		-0.08773414		-0.00039300		 0.00006849		-0.00068615	
Mg		11.59644529		3.43005574		-0.22841589		-0.00011310		-0.00056404		-0.00031120	
Mg		9.43955414		0.52623656		4.34244453		 0.00011310		-0.00056404		-0.00031120	
Mg		4.58444548		3.87671732		4.07440523		 0.00039300		 0.00006849		-0.00068615	
Mg		2.48925993		4.14770026		1.18841336		 0.00042121		 0.00000358		 0.00045820	
Mg		11.53473969		0.71649596		1.46290931		 0.00023863		 0.00010847		 0.00065225	
Mg		9.50125974		2.92167594		5.62505009		-0.00023863		 0.00010847		 0.00065225	
Mg		4.52273988		1.24388108		5.75927239		-0.00042121		 0.00000358		 0.00045820	
Mg		4.54377588		1.54172559		2.68978069		 0.00052978		 0.00021630		-0.00039462	
Mg		9.48022374		3.11427594		2.56397700		 0.00087503		 0.00005132		 0.00040166	
Mg		11.55577569		0.21045536		7.13483743		-0.00087503		 0.00005132		 0.00040166	
Mg		2.46822393		3.74690557		6.85192146		-0.00052978		 0.00021630		-0.00039462	
Mg		0.00000000		1.97560711		7.03180450		 0.00055183		 0.00047869		 0.00019322	
Mg		7.01199981		-0.22957287		2.86966373		-0.00055183		 0.00047869		 0.00019322	
Mg		0.00000000		2.42385340		1.42871039		-0.00020585		 0.00000201		 0.00023952	
Mg		7.01199981		-0.47996578		5.99957082		 0.00020585		 0.00000201		 0.00023952	
Mg		0.00000000		-0.46284949		5.78561226		-0.00055195		 0.00031013		-0.00014855	
Mg		7.01199981		2.44097109		1.21475324		 0.00055195		 0.00031013		-0.00014855	
Mg		0.00000000		-0.24137968		3.01725090		 0.00066766		 0.00038192		 0.00063948	
Mg		7.01199981		1.96380030		7.17939027		-0.00066766		 0.00038192		 0.00063948	
Si		0.00000000		-0.00537961		0.06724368		-0.00052494		-0.00039221		 0.00026764	
Si		7.01199981		2.19980037		4.22938445		 0.00052494		-0.00039221		 0.00026764	
Si		5.28143826		0.06847358		0.03877496		-0.00017651		-0.00004932		 0.00001454	
Si		8.74256136		5.03339998		-0.35841837		 0.00023063		-0.00019189		-0.00000706	
Si		12.29343807		2.12957940		4.21244065		-0.00023063		-0.00019189		-0.00000706	
Si		1.73056155		2.27365356		4.20091433		 0.00017651		-0.00004932		 0.00001454	
O		5.82416704		2.92709060		8.38740778		 0.00005371		 0.00008202		 0.00005784	
O		8.19983258		0.79357186		8.55808827		 0.00025160		-0.00024763		 0.00055806	
O		12.83616825		3.69739244		3.98722924		-0.00025160		-0.00024763		 0.00055806	
O		1.18783277		0.72191062		4.22526841		-0.00005371		 0.00008202		 0.00005784	
O		1.09807917		3.53755531		-0.23961967		 0.00009152		 0.00029181		-0.00010679	
O		12.92592045		1.56445850		-0.08177114		-0.00008502		 0.00040665		-0.00025502	
O		8.11007898		3.76963848		4.08036824		 0.00008502		 0.00040665		-0.00025502	
O		5.91392064		0.63373473		4.33124076		-0.00009152		 0.00029181		-0.00010679	
O		3.49898791		-0.12870245		3.00476533		 0.00035615		-0.00013541		-0.00089001	
O		10.52501171		4.75550041		2.61403005		-0.00067740		-0.00090652		 0.00080879	
O		10.51098912		1.85168123		7.18489048		 0.00067740		-0.00090652		 0.00080879	
O		3.51301190		2.07647753		7.16690611		-0.00035615		-0.00013541		-0.00089001	
O		3.57892470		2.50262901		1.20548057		-0.00003719		-0.00007199		-0.00028283	
O		10.44507492		2.38001157		1.21529036		 0.00022625		-0.00077697		-0.00006177	
O		10.59092451		4.58519155		5.37743113		-0.00022625		-0.00077697		-0.00006177	
O		3.43307511		-0.40119157		5.77634100		 0.00003719		-0.00007199		-0.00028283	
O		1.06582397		0.62873377		1.27816696		 0.00007331		 0.00043798		-0.00080103	
O		12.95817705		4.26634190		0.98715775		-0.00053511		-0.00014149		 0.00043418	
O		8.07782378		1.36252132		5.55801818		 0.00053511		-0.00014149		 0.00043418	
O		5.94617584		2.83391375		5.44030633		-0.00007331		 0.00043798		-0.00080103	
O		6.02751504		3.05268534		2.89603025		 0.00005190		 0.00018945		 0.00053025	
O		7.99648318		1.55063925		3.01619349		 0.00060792		-0.00052192		 0.00024497	
O		13.03951625		3.75581923		7.17833426		-0.00060792		-0.00052192		 0.00024497	
O		0.98448477		0.14886476		7.46688927		-0.00005190		 0.00018945		 0.00053025	
O		5.81294784		0.66996433		1.33387169		 0.00020680		 0.00019937		-0.00052845	
O		8.21105178		4.21561148		1.05022087		 0.00014040		-0.00009844		-0.00026592	
O		12.82494765		1.31179090		5.62108130		-0.00014040		-0.00009844		-0.00026592	
O		1.19905197		2.87514431		5.49601246		-0.00020680		 0.00019937		-0.00052845	
O		1.24673357		3.25660831		2.75823744		 0.00029600		-0.00044183		-0.00019877	
O		12.77726605		1.36627835		2.90946384		 0.00016751		-0.00024583		 0.00017872	
O		8.25873338		3.57145833		7.07160321		-0.00016751		-0.00024583		 0.00017872	
O		5.76526624		0.35278773		7.32909787		-0.00029600		-0.00044183		-0.00019877	
O		3.64343510		0.01963360		0.05916866		 0.00006202		 0.00035310		 0.00028501	
O		10.38056592		5.07958522		-0.34562708		 0.00012633		 0.00039144		-0.00032592	
O		10.65543491		2.17576604		4.22523335		-0.00012633		 0.00039144		-0.00032592	
O		3.36856471		2.22481358		4.22130943		-0.00006202		 0.00035310		 0.00028501	
H		4.20719989		2.99553614		0.62806763		-0.00000985		 0.00068139		-0.00031002	
H		9.81679973		1.97373630		0.70981212		-0.00002096		 0.00003437		-0.00020305	
H		11.21919970		4.17891628		4.87195149		 0.00002096		 0.00003437		-0.00020305	
H		2.80479992		0.09171556		5.19892806		 0.00000985		 0.00068139		-0.00031002	
H		3.78647990		0.60523235		3.85628015		 0.00007471		 0.00069816		 0.00001519	
H		10.23751972		3.87499237		3.59469890		 0.00006013		-0.00060118		-0.00020239	
H		10.79847971		0.97117179		8.16555933		-0.00006013		-0.00060118		-0.00020239	
H		3.22551991		2.81041233		8.01841952		-0.00007471		 0.00069816		 0.00001519	
