# total energy = -49432.5987245 eV	

CRYSTAL	
PRIMVEC	
		14.02399962		0.00000000		0.00000000	
		0.00000000		5.10899916		-0.81744491	
		0.00000000		-1.39728120		8.73299700	
PRIMCOORD
   70 1	
Mg		2.42755433		1.66783641		-0.22175449		-0.00031454		-0.00009555		 0.00030707	
Mg		11.59644529		3.42635340		-0.50311660		-0.00034467		 0.00026558		 0.00031108	
Mg		9.43955414		0.17321322		4.27210296		 0.00034467		 0.00026558		 0.00031108	
Mg		4.58444548		3.52369539		3.73602575		 0.00031454		-0.00009555		 0.00030707	
Mg		2.48925993		4.02529879		0.84680556		 0.00038428		 0.00014695		 0.00009916	
Mg		11.53473969		0.59409449		1.39579746		-0.00038989		-0.00020172		 0.00031195	
Mg		9.50125974		2.44995487		5.35357771		 0.00038989		-0.00020172		 0.00031195	
Mg		4.52273988		0.77215861		5.62202511		-0.00038428		 0.00014695		 0.00009916	
Mg		4.54377588		1.31522678		2.54832341		-0.00002623		-0.00025943		-0.00003502	
Mg		9.48022374		2.88777712		2.29671462		-0.00007401		-0.00012886		-0.00002854	
Mg		11.55577569		-0.36536305		7.07193418		 0.00007401		-0.00012886		-0.00002854	
Mg		2.46822393		3.17108716		6.50610225		 0.00002623		-0.00025943		-0.00003502	
Mg		0.00000000		1.39671463		6.82744398		-0.00050557		-0.00031210		-0.00023592	
Mg		7.01199981		-0.45914575		2.86966373		 0.00050557		-0.00031210		-0.00023592	
Mg		0.00000000		2.29320863		1.22435126		 0.00068007		-0.00005107		 0.00004236	
Mg		7.01199981		-0.95993155		5.99957082		-0.00068007		-0.00005107		 0.00004236	
Mg		0.00000000		-0.92569757		5.78561226		-0.00011263		 0.00074060		-0.00016080	
Mg		7.01199981		2.32744261		1.01039271		 0.00011263		 0.00074060		-0.00016080	
Mg		0.00000000		-0.48275936		3.01725090		 0.00012835		 0.00023500		-0.00050065	
Mg		7.01199981		1.37309962		6.97503114		-0.00012835		 0.00023500		-0.00050065	
Si		0.00000000		-0.01075921		0.06724368		-0.00018731		-0.00005248		 0.00021223	
Si		7.01199981		1.84510117		4.02502392		 0.00018731		-0.00005248		 0.00021223	
Si		5.28143826		0.06491148		0.03301250		-0.00029072		 0.00001207		 0.00008294	
Si		8.74256136		5.02983648		-0.76137556		-0.00015536		 0.00007827		-0.00018867	
Si		12.29343807		1.77669630		4.01384399		 0.00015536		 0.00007827		-0.00018867	
Si		1.73056155		1.92077046		3.99079134		 0.00029072		 0.00001207		 0.00008294	
O		5.82416704		2.23292226		8.09770701		 0.00049585		-0.00001795		 0.00024125	
O		8.19983258		0.09940351		8.43906939		 0.00002467		 0.00010530		 0.00005117	
O		12.83616825		3.35254229		3.66384984		-0.00002467		 0.00010530		 0.00005117	
O		1.18783277		0.37706188		4.13992676		-0.00049585		-0.00001795		 0.00024125	
O		1.09807917		3.53406193		-0.52290306		-0.00024672		 0.00000162		 0.00038099	
O		12.92592045		1.56096652		-0.20720740		-0.00024440		 0.00062475		-0.00012260	
O		8.11007898		3.41682550		3.75057145		 0.00024440		 0.00062475		-0.00012260	
O		5.91392064		0.28092035		4.25231650		 0.00024672		 0.00000162		 0.00038099	
O		3.49898791		-0.36980305		2.99577454		-0.00032802		-0.00062046		-0.00050155	
O		10.52501171		4.51440121		2.21430259		-0.00007960		 0.00001364		-0.00014215	
O		10.51098912		1.26126103		6.98952214		 0.00007960		 0.00001364		-0.00014215	
O		3.51301190		1.48605733		6.95355339		 0.00032802		-0.00062046		-0.00050155	
O		3.57892470		2.38944832		0.99621725		-0.00062097		-0.00013373		 0.00056257	
O		10.44507492		2.26683229		1.01583542		 0.00017878		-0.00014412		-0.00004182	
O		10.59092451		4.12269267		4.97361427		-0.00017878		-0.00014412		-0.00004182	
O		3.43307511		-0.86369046		5.77143680		 0.00062097		-0.00013373		 0.00056257	
O		1.06582397		0.52177132		1.21931104		 0.00029080		-0.00020282		-0.00020310	
O		12.95817705		4.15938085		0.63729402		 0.00022569		 0.00039663		 0.00051195	
O		8.07782378		0.90624067		5.41251357		-0.00022569		 0.00039663		 0.00051195	
O		5.94617584		2.37763310		5.17709129		-0.00029080		-0.00020282		-0.00020310	
O		6.02751504		2.79984805		2.63158950		-0.00044768		-0.00017705		-0.00021856	
O		7.99648318		1.29780056		2.87191598		-0.00024054		 0.00008485		-0.00024447	
O		13.03951625		3.15366234		6.82969623		 0.00024054		 0.00008485		-0.00024447	
O		0.98448477		-0.45329213		7.40680906		 0.00044768		-0.00017705		-0.00021856	
O		5.81294784		0.55825195		1.27133727		 0.00023885		 0.00007426		-0.00025206	
O		8.21105178		4.10389770		0.70403563		-0.00013328		 0.00022524		-0.00018828	
O		12.82494765		0.85075752		5.47925519		 0.00013328		 0.00022524		-0.00018828	
O		1.19905197		2.41411233		5.22911752		-0.00023885		 0.00007426		-0.00025206	
O		1.24673357		3.01355137		2.47826371		 0.00039902		-0.00002408		-0.00004160	
O		12.77726605		1.12322140		2.78071651		-0.00015536		-0.00023770		 0.00001160	
O		8.25873338		2.97908037		6.73849676		 0.00015536		-0.00023770		 0.00001160	
O		5.76526624		-0.23958881		7.25348327		-0.00039902		-0.00002408		-0.00004160	
O		3.64343510		0.01474203		0.05720670		-0.00016454		-0.00027136		 0.00022367	
O		10.38056592		5.07469645		-0.75238477		-0.00024495		-0.00055637		 0.00042484	
O		10.65543491		1.82155627		4.02283478		 0.00024495		-0.00055637		 0.00042484	
O		3.36856471		1.87060241		4.01498695		 0.00016454		-0.00027136		 0.00022367	
H		4.20719989		2.92567137		0.38283556		-0.00000194		 0.00031109		-0.00047962	
H		9.81679973		1.90387154		0.54632454		 0.00012435		 0.00023463		 0.00031988	
H		11.21919970		3.75973192		4.50410338		-0.00012435		 0.00023463		 0.00031988	
H		2.80479992		-0.32746740		5.15805651		 0.00000194		 0.00031109		-0.00047962	
H		3.78647990		0.29084373		3.78271025		-0.00008608		-0.00006049		-0.00020658	
H		10.23751972		3.56060375		3.25954915		 0.00016117		-0.00000312		-0.00030272	
H		10.79847971		0.30746357		8.03476870		-0.00016117		-0.00000312		-0.00030272	
H		3.22551991		2.14670411		7.74048909		 0.00008608		-0.00006049		-0.00020658	
