# total energy = -49432.598312 eV	

CRYSTAL	
PRIMVEC	
		14.02399962		0.00000000		0.00000000	
		0.00000000		5.10899916		0.81744491	
		0.00000000		1.39728120		8.73299700	
PRIMCOORD
   70 1	
Mg		2.42755433		1.68264716		0.31432271		 0.00046138		-0.00013034		 0.00030600	
Mg		11.59644529		3.44116555		0.59568621		 0.00033508		 0.00012702		 0.00039023	
Mg		9.43955414		1.58530517		4.55346646		-0.00033508		 0.00012702		 0.00039023	
Mg		4.58444548		4.93578734		5.08954226		-0.00046138		-0.00013034		 0.00030600	
Mg		2.48925993		4.51490607		2.21323817		 0.00041744		 0.00035212		 0.00029702	
Mg		11.53473969		1.08370036		1.66424486		-0.00015593		-0.00012359		 0.00014601	
Mg		9.50125974		4.33684054		6.43946442		 0.00015593		-0.00012359		 0.00014601	
Mg		4.52273988		2.65904569		6.17101842		-0.00041744		 0.00035212		 0.00029702	
Mg		4.54377588		2.22122344		3.11415533		 0.00017659		 0.00009236		-0.00006244	
Mg		9.48022374		3.79377378		3.36576271		-0.00026026		 0.00017312		 0.00004565	
Mg		11.55577569		1.93791340		7.32354296		 0.00026026		 0.00017312		 0.00004565	
Mg		2.46822393		5.47436221		7.88937488		-0.00017659		 0.00009236		-0.00006244	
Mg		0.00000000		3.71228593		7.64488328		 0.00042452		 0.00053377		-0.00010969	
Mg		7.01199981		0.45914575		2.86966373		-0.00042452		 0.00053377		-0.00010969	
Mg		0.00000000		2.81579053		2.04179057		-0.00087459		-0.00001262		 0.00020412	
Mg		7.01199981		0.95993155		5.99957082		 0.00087459		-0.00001262		 0.00020412	
Mg		0.00000000		0.92569757		5.78561226		 0.00028964		-0.00069029		-0.00031825	
Mg		7.01199981		2.78155795		1.82783342		-0.00028964		-0.00069029		-0.00031825	
Mg		0.00000000		0.48275936		3.01725090		-0.00011659		-0.00025239		-0.00062648	
Mg		7.01199981		3.73589954		7.79247045		 0.00011659		-0.00025239		-0.00062648	
Si		0.00000000		0.01075921		0.06724368		 0.00018831		 0.00010686		 0.00031182	
Si		7.01199981		3.26389939		4.84246323		-0.00018831		 0.00010686		 0.00031182	
Si		5.28143826		0.07916267		0.05606374		 0.00019657		-0.00018161		-0.00012713	
Si		8.74256136		5.04408908		0.85045180		 0.00004592		-0.00004021		 0.00016913	
Si		12.29343807		3.18822870		4.80823205		-0.00004592		-0.00004021		 0.00016913	
Si		1.73056155		3.33230285		4.83128330		-0.00019657		-0.00018161		-0.00012713	
O		5.82416704		5.00959705		9.25651010		-0.00001164		-0.00017021		 0.00009392	
O		8.19983258		2.87607830		8.91514631		-0.00053262		-0.00000427		 0.00001237	
O		12.83616825		4.73193728		4.95736747		 0.00053262		-0.00000427		 0.00001237	
O		1.18783277		1.75645687		4.48129054		 0.00001164		-0.00017021		 0.00009392	
O		1.09807917		3.54803404		0.61023331		 0.00026526		-0.00094397		 0.00002013	
O		12.92592045		1.57493863		0.29453765		 0.00030660		-0.00010125		 0.00015907	
O		8.11007898		4.82807881		5.06975720		-0.00030660		-0.00010125		 0.00015907	
O		5.91392064		1.69217366		4.56801356		-0.00026526		-0.00094397		 0.00002013	
O		3.49898791		0.59459935		3.03174190		-0.00001980		-0.00004344		-0.00012871	
O		10.52501171		5.47880221		3.81321385		 0.00028092		 0.00065002		-0.00009035	
O		10.51098912		3.62294323		7.77099410		-0.00028092		 0.00065002		-0.00009035	
O		3.51301190		3.84773953		7.80696145		 0.00001980		-0.00004344		-0.00012871	
O		3.57892470		2.84216827		1.83327473		-0.00030854		 0.00009205		-0.00014458	
O		10.44507492		2.71955084		1.81365656		 0.00030976		 0.00003692		 0.00010428	
O		10.59092451		5.97269102		6.58887751		-0.00030976		 0.00003692		 0.00010428	
O		3.43307511		0.98630649		5.79105498		 0.00030854		 0.00009205		-0.00014458	
O		1.06582397		0.94961971		1.45473332		-0.00028249		-0.00063229		 0.00058945	
O		12.95817705		4.58722784		2.03675034		-0.00053980		 0.00034256		-0.00002729	
O		8.07782378		2.73136746		5.99453059		 0.00053980		 0.00034256		-0.00002729	
O		5.94617584		4.20275989		6.22995428		 0.00028249		-0.00063229		 0.00058945	
O		6.02751504		3.81119860		3.68935529		 0.00034941		 0.00008385		-0.00033254	
O		7.99648318		2.30915251		3.44902881		 0.00043574		 0.00001288		-0.00041138	
O		13.03951625		5.56229269		8.22424836		-0.00043574		 0.00001288		-0.00041138	
O		0.98448477		1.95533962		7.64713553		-0.00034941		 0.00008385		-0.00033254	
O		5.81294784		1.00510146		1.52147494		 0.00024642		-0.00026404		-0.00020397	
O		8.21105178		4.55074721		2.08877798		-0.00024213		-0.00039611		-0.00017356	
O		12.82494765		2.69488823		6.04655823		 0.00024213		-0.00039611		-0.00017356	
O		1.19905197		4.25824164		6.29669449		-0.00024642		-0.00026404		-0.00020397	
O		1.24673357		3.98577916		3.59815722		 0.00008797		 0.00030768		 0.00009430	
O		12.77726605		2.09544919		3.29570442		-0.00043070		 0.00020981		-0.00019649	
O		8.25873338		5.34858937		8.07092397		 0.00043070		 0.00020981		-0.00019649	
O		5.76526624		2.12991878		7.55593746		-0.00008797		 0.00030768		 0.00009430	
O		3.64343510		0.03430411		0.06505453		 0.00034108		 0.00064040		 0.00038629	
O		10.38056592		5.09425853		0.87464741		 0.00009289		 0.00027142		 0.00043913	
O		10.65543491		3.23839815		4.83242625		-0.00009289		 0.00027142		 0.00043913	
O		3.36856471		3.28744429		4.84027548		-0.00034108		 0.00064040		 0.00038629	
H		4.20719989		3.20512761		1.36376384		-0.00000285		-0.00017899		 0.00041198	
H		9.81679973		2.18332778		1.20027626		 0.00040472		-0.00021172		-0.00027801	
H		11.21919970		5.43646796		5.97549581		-0.00040472		-0.00021172		-0.00027801	
H		2.80479992		1.34926864		5.32154409		 0.00000285		-0.00017899		 0.00041198	
H		3.78647990		1.54839541		4.07698845		-0.00014053		 0.00000261		-0.00033162	
H		10.23751972		4.81815543		4.60015095		 0.00000278		 0.00034195		-0.00061838	
H		10.79847971		2.96229645		8.55793120		-0.00000278		 0.00034195		-0.00061838	
H		3.22551991		4.80153559		8.85220941		 0.00014053		 0.00000261		-0.00033162	
