# total energy = -49438.4610821 eV	

CRYSTAL	
PRIMVEC	
		14.02399962		0.00000000		0.00000000	
		0.00000000		5.10899916		0.61307317	
		0.00000000		1.04795740		8.73299700	
PRIMCOORD
   70 1	
Mg		2.42755433		1.68079459		0.24731464		 0.00023049		-0.00005601		 0.00020069	
Mg		11.59644529		3.43931298		0.45833656		 0.00028614		 0.00005519		 0.00019414	
Mg		9.43955414		1.40879350		4.51829567		-0.00028614		 0.00005519		 0.00019414	
Mg		4.58444548		4.75927426		4.92035392		-0.00023049		-0.00005601		 0.00020069	
Mg		2.48925993		4.45370534		2.04243427		 0.00008332		 0.00010846		-0.00036234	
Mg		11.53473969		1.02249963		1.63068964		-0.00010273		-0.00017532		-0.00066218	
Mg		9.50125974		4.10098071		6.30372893		 0.00010273		-0.00017532		-0.00066218	
Mg		4.52273988		2.42318446		6.10239338		-0.00008332		 0.00010846		-0.00036234	
Mg		4.54377588		2.10797403		3.04342529		-0.00024609		-0.00012232		 0.00021337	
Mg		9.48022374		3.68052437		3.23213223		 0.00036932		-0.00020848		-0.00030274	
Mg		11.55577569		1.65000349		7.29209134		-0.00036932		-0.00020848		-0.00030274	
Mg		2.46822393		5.18645371		7.71646598		 0.00024609		-0.00012232		 0.00021337	
Mg		0.00000000		3.42284039		7.54270442		-0.00002177		 0.00010117		-0.00005518	
Mg		7.01199981		0.34435931		2.86966373		 0.00002177		 0.00010117		-0.00005518	
Mg		0.00000000		2.75046955		1.93961030		-0.00079661		 0.00029091		-0.00034133	
Mg		7.01199981		0.71994867		5.99957082		 0.00079661		 0.00029091		-0.00034133	
Mg		0.00000000		0.69427353		5.78561226		-0.00071361		 0.00034559		 0.00033699	
Mg		7.01199981		2.72479441		1.72565315		 0.00071361		 0.00034559		 0.00033699	
Mg		0.00000000		0.36207022		3.01725090		 0.00015854		-0.00005389		-0.00023464	
Mg		7.01199981		3.44054990		7.69029019		-0.00015854		-0.00005389		-0.00023464	
Si		0.00000000		0.00806941		0.06724368		 0.00053050		 0.00016888		 0.00019919	
Si		7.01199981		3.08654909		4.74028437		-0.00053050		 0.00016888		 0.00019919	
Si		5.28143826		0.07738163		0.05318321		-0.00004384		-0.00007914		 0.00011528	
Si		8.74256136		5.04230803		0.64897461		-0.00012976		-0.00030102		-0.00001746	
Si		12.29343807		3.01178855		4.70893372		 0.00012976		-0.00030102		-0.00001746	
Si		1.73056155		3.15586130		4.72622250		 0.00004384		-0.00007914		 0.00011528	
O		5.82416704		4.66251147		9.11166041		-0.00026217		-0.00020246		-0.00001725	
O		8.19983258		2.52899413		8.85563827		 0.00041212		-0.00014750		-0.00016191	
O		12.83616825		4.55951361		4.79567776		-0.00041212		-0.00014750		-0.00016191	
O		1.18783277		1.58403179		4.43861972		 0.00026217		-0.00020246		-0.00001725	
O		1.09807917		3.54628805		0.46859091		 0.00001859		 0.00035071		 0.00036353	
O		12.92592045		1.57319264		0.23181952		 0.00001152		-0.00001080		-0.00027378	
O		8.11007898		4.65167232		4.90485881		-0.00001152		-0.00001080		-0.00027378	
O		5.91392064		1.51576857		4.52855142		-0.00001859		 0.00035071		 0.00036353	
O		3.49898791		0.47404905		3.02724580		 0.00035011		-0.00031256		 0.00020915	
O		10.52501171		5.35825331		3.61334941		-0.00084767		 0.00031519		 0.00069652	
O		10.51098912		3.32773243		7.67330993		 0.00084767		 0.00031519		 0.00069652	
O		3.51301190		3.55252873		7.70028649		-0.00035011		-0.00031256		 0.00020915	
O		3.57892470		2.78557723		1.72864307		 0.00002563		 0.00040832		 0.00012313	
O		10.44507492		2.66296119		1.71392909		-0.00014476		 0.00003621		-0.00050329	
O		10.59092451		5.74144227		6.38696838		 0.00014476		 0.00003621		-0.00050329	
O		3.43307511		0.75505775		5.78860218		-0.00002563		 0.00040832		 0.00012313	
O		1.06582397		0.89613919		1.42530536		 0.00034396		-0.00023724		 0.00003512	
O		12.95817705		4.53374731		1.86181918		 0.00023197		 0.00011851		-0.00026564	
O		8.07782378		2.50322643		5.92177829		-0.00023197		 0.00011851		-0.00026564	
O		5.94617584		3.97461886		6.09834605		-0.00034396		-0.00023724		 0.00003512	
O		6.02751504		3.68477925		3.55713421		-0.00014288		 0.00000307		 0.00051823	
O		7.99648318		2.18273457		3.37688935		-0.00019650		 0.00036750		-0.00000480	
O		13.03951625		5.26121425		8.04993005		 0.00019650		 0.00036750		-0.00000480	
O		0.98448477		1.65425978		7.61709472		 0.00014288		 0.00000307		 0.00051823	
O		5.81294784		0.94924667		1.49020843		 0.00053425		 0.00015691		-0.00015132	
O		8.21105178		4.49489242		1.91568536		 0.00000556		 0.00011749		 0.00035077	
O		12.82494765		2.46437154		5.97564447		-0.00000556		 0.00011749		 0.00035077	
O		1.19905197		4.02772635		6.16324772		-0.00053425		 0.00015691		-0.00015132	
O		1.24673357		3.86424999		3.45816965		 0.00030692		 0.00002894		 0.00002259	
O		12.77726605		1.97392002		3.23133146		-0.00033946		-0.00056578		-0.00013427	
O		8.25873338		5.05239970		7.90437075		 0.00033946		-0.00056578		-0.00013427	
O		5.76526624		1.83373051		7.51813016		-0.00030692		 0.00002894		 0.00002259	
O		3.64343510		0.03185832		0.06407425		-0.00008018		-0.00012553		 0.00004702	
O		10.38056592		5.09181275		0.67126856		-0.00019071		 0.00017816		-0.00035842	
O		10.65543491		3.06129327		4.73122767		 0.00019071		 0.00017816		-0.00035842	
O		3.36856471		3.11033940		4.73711354		 0.00008018		-0.00012553		 0.00004702	
H		4.20719989		3.17019523		1.24114781		 0.00024650		-0.00013074		-0.00018679	
H		9.81679973		2.14839540		1.11853177		-0.00000890		-0.00024489		-0.00011591	
H		11.21919970		5.22687648		5.79157246		 0.00000890		-0.00024489		-0.00011591	
H		2.80479992		1.13967576		5.30110832		-0.00024650		-0.00013074		-0.00018679	
H		3.78647990		1.39120180		4.04020350		-0.00029722		 0.00030837		 0.00052961	
H		10.23751972		4.66096182		4.43257538		-0.00020478		-0.00048589		-0.00000607	
H		10.79847971		2.63044234		8.49253449		 0.00020478		-0.00048589		-0.00000607	
H		3.22551991		4.46968148		8.71324419		 0.00029722		 0.00030837		 0.00052961	
