# total energy = -49438.4610821 eV	

CRYSTAL	
PRIMVEC	
		14.02399962		0.00000000		0.00000000	
		0.00000000		5.10899916		-0.61307317	
		0.00000000		-1.04795740		8.73299700	
PRIMCOORD
   70 1	
Mg		2.42755433		1.66968758		-0.15474362		-0.00028616		-0.00005518		 0.00019413	
Mg		11.59644529		3.42820457		-0.36576554		-0.00023051		 0.00005602		 0.00020064	
Mg		9.43955414		0.34972489		4.30727374		 0.00023051		 0.00005602		 0.00020064	
Mg		4.58444548		3.70020706		3.90521549		 0.00028616		-0.00005518		 0.00019413	
Mg		2.48925993		4.08649953		1.01760946		 0.00010273		 0.00017531		-0.00066220	
Mg		11.53473969		0.65529522		1.42935409		-0.00008337		-0.00010843		-0.00036236	
Mg		9.50125974		2.68581470		5.48931320		 0.00008337		-0.00010843		-0.00036236	
Mg		4.52273988		1.00801985		5.69064875		-0.00010273		 0.00017531		-0.00066220	
Mg		4.54377588		1.42847619		2.61905205		-0.00036927		 0.00020848		-0.00030275	
Mg		9.48022374		3.00102653		2.43034651		 0.00024606		 0.00012228		 0.00021338	
Mg		11.55577569		-0.07745455		7.10338580		-0.00024606		 0.00012228		 0.00021338	
Mg		2.46822393		3.45899567		6.67901116		 0.00036927		 0.00020848		-0.00030275	
Mg		0.00000000		1.68616017		6.92962424		 0.00002168		-0.00010116		-0.00005519	
Mg		7.01199981		-0.34435931		2.86966373		-0.00002168		-0.00010116		-0.00005519	
Mg		0.00000000		2.35853242		1.32653153		 0.00079657		-0.00029091		-0.00034133	
Mg		7.01199981		-0.71994867		5.99957082		-0.00079657		-0.00029091		-0.00034133	
Mg		0.00000000		-0.69427353		5.78561226		 0.00071353		-0.00034560		 0.00033705	
Mg		7.01199981		2.38420755		1.11257297		-0.00071353		-0.00034560		 0.00033705	
Mg		0.00000000		-0.36207022		3.01725090		-0.00015854		 0.00005387		-0.00023467	
Mg		7.01199981		1.66844926		7.07721141		 0.00015854		 0.00005387		-0.00023467	
Si		0.00000000		-0.00806941		0.06724368		-0.00053057		-0.00016895		 0.00019904	
Si		7.01199981		2.02245147		4.12720419		 0.00053057		-0.00016895		 0.00019904	
Si		5.28143826		0.06669253		0.03589443		 0.00013000		 0.00030116		-0.00001716	
Si		8.74256136		5.03161893		-0.55989697		 0.00004401		 0.00007928		 0.00011568	
Si		12.29343807		1.95313926		4.11314232		-0.00004401		 0.00007928		 0.00011568	
Si		1.73056155		2.09721201		4.09585354		-0.00013000		 0.00030116		-0.00001716	
O		5.82416704		2.58000643		8.24255810		-0.00041216		 0.00014756		-0.00016193	
O		8.19983258		0.44648769		8.49858023		 0.00026213		 0.00020243		-0.00001729	
O		12.83616825		3.52496736		3.82553954		-0.00026213		 0.00020243		-0.00001729	
O		1.18783277		0.54948555		4.18259758		 0.00041216		 0.00014756		-0.00016193	
O		1.09807917		3.53580792		-0.38126066		-0.00001146		 0.00001078		-0.00027375	
O		12.92592045		1.56271251		-0.14448927		-0.00001855		-0.00035072		 0.00036356	
O		8.11007898		3.59323339		3.91547124		 0.00001855		-0.00035072		 0.00036356	
O		5.91392064		0.45732824		4.29177863		 0.00001146		 0.00001078		-0.00027375	
O		3.49898791		-0.24925275		3.00026924		 0.00084780		-0.00031523		 0.00069641	
O		10.52501171		4.63495151		2.41416562		-0.00035016		 0.00031251		 0.00020916	
O		10.51098912		1.55647043		7.08720631		 0.00035016		 0.00031251		 0.00020916	
O		3.51301190		1.78126673		7.06022975		-0.00084780		-0.00031523		 0.00069641	
O		3.57892470		2.44603937		1.10084891		 0.00014485		-0.00003612		-0.00050337	
O		10.44507492		2.32342193		1.11556289		-0.00002544		-0.00040828		 0.00012328	
O		10.59092451		4.35394281		5.17552340		 0.00002544		-0.00040828		 0.00012328	
O		3.43307511		-0.63244031		5.77388820		-0.00014485		-0.00003612		-0.00050337	
O		1.06582397		0.57525325		1.24873900		-0.00023194		-0.00011849		-0.00026555	
O		12.95817705		4.21286137		0.81222658		-0.00034393		 0.00023725		 0.00003517	
O		8.07782378		1.13438029		5.48526587		 0.00034393		 0.00023725		 0.00003517	
O		5.94617584		2.60577272		5.30869951		 0.00023194		-0.00011849		-0.00026555	
O		6.02751504		2.92626599		2.76381058		 0.00019646		-0.00036747		-0.00000474	
O		7.99648318		1.42421990		2.94405544		 0.00014283		-0.00000303		 0.00051824	
O		13.03951625		3.45473938		7.00401454		-0.00014283		-0.00000303		 0.00051824	
O		0.98448477		-0.15221369		7.43684987		-0.00019646		-0.00036747		-0.00000474	
O		5.81294784		0.61410814		1.30260518		-0.00000569		-0.00011761		 0.00035048	
O		8.21105178		4.15975389		0.87712825		-0.00053421		-0.00015689		-0.00015140	
O		12.82494765		1.08127421		5.55016754		 0.00053421		-0.00015689		-0.00015140	
O		1.19905197		2.64462762		5.36256429		 0.00000569		-0.00011761		 0.00035048	
O		1.24673357		3.13508054		2.61825128		 0.00033946		 0.00056581		-0.00013428	
O		12.77726605		1.24475057		2.84508947		-0.00030679		-0.00002905		 0.00002230	
O		8.25873338		3.27527005		6.90505139		 0.00030679		-0.00002905		 0.00002230	
O		5.76526624		0.05659946		7.29129057		-0.00033946		 0.00056581		-0.00013428	
O		3.64343510		0.01718641		0.05818838		 0.00019060		-0.00017812		-0.00035844	
O		10.38056592		5.07714084		-0.54900593		 0.00008009		 0.00012552		 0.00004702	
O		10.65543491		1.99866116		4.12403336		-0.00008009		 0.00012552		 0.00004702	
O		3.36856471		2.04770729		4.11814749		-0.00019060		-0.00017812		-0.00035844	
H		4.20719989		2.96060376		0.50545159		 0.00000879		 0.00024485		-0.00011583	
H		9.81679973		1.93880392		0.62806763		-0.00024662		 0.00013068		-0.00018689	
H		11.21919970		3.96932340		4.68802814		 0.00024662		 0.00013068		-0.00018689	
H		2.80479992		-0.11787592		5.17849228		-0.00000879		 0.00024485		-0.00011583	
H		3.78647990		0.44803734		3.81949520		 0.00020464		 0.00048587		-0.00000601	
H		10.23751972		3.71779736		3.42712332		 0.00029729		-0.00030839		 0.00052961	
H		10.79847971		0.63931768		8.10016401		-0.00029729		-0.00030839		 0.00052961	
H		3.22551991		2.47855822		7.87945431		-0.00020464		 0.00048587		-0.00000601	
