# total energy = -66803.5537298 eV	

CRYSTAL	
PRIMVEC	
		18.34339846		0.00000000		0.00000000	
		0.00000000		6.73129350		-0.80775155	
		0.00000000		-1.30612334		10.88440400	
PRIMCOORD
   112 1	
Ca		14.17192622		6.42162392		1.71371733		-0.00093940		-0.00008928		 0.00011879	
Ca		4.17147224		-0.99645193		8.36292595		 0.00093940		 0.00008928		-0.00011879	
Ca		4.17147224		-0.29527002		2.51974460		-0.00043501		-0.00030799		-0.00020511	
Ca		14.17192622		5.72044201		7.55689868		 0.00043501		 0.00030799		 0.00020511	
Ca		13.34317147		3.00785509		2.51857612		-0.00043501		 0.00030799		 0.00020511	
Ca		5.00022699		2.41731506		7.55806715		 0.00043501		-0.00030799		-0.00020511	
Ca		5.00022699		3.02226200		2.51684818		-0.00093940		 0.00008928		-0.00011879	
Ca		13.34317147		2.40290999		7.55979510		 0.00093940		-0.00008928		 0.00011879	
Ca		7.55546239		0.08687067		8.02073536		 0.00025303		-0.00026096		-0.00044514	
Ca		10.78793607		5.33830132		2.05590976		-0.00025303		 0.00026096		 0.00044514	
Ca		10.78793607		4.68879093		7.46850368		 0.00024282		-0.00000518		 0.00019798	
Ca		7.55546239		0.73638106		2.60813960		-0.00024282		 0.00000518		-0.00019798	
Ca		1.61623684		3.44896613		7.64646216		 0.00024282		 0.00000518		-0.00019798	
Ca		16.72716162		1.97620586		2.43018112		-0.00024282		-0.00000518		 0.00019798	
Ca		16.72716162		1.31958740		7.90198753		 0.00025303		 0.00026096		 0.00044514	
Ca		1.61623684		4.10558459		2.17465758		-0.00025303		-0.00026096		-0.00044514	
Ca		6.10413271		5.40388814		-0.64846665		 0.00025542		 0.00053005		 0.00016140	
Ca		12.23926575		1.32741269		-0.15928857		-0.00025542		-0.00053005		-0.00016140	
Ca		3.06756652		1.38517422		5.19761113		-0.00025542		 0.00053005		 0.00016140	
Ca		15.27583194		4.03999777		4.87903215		 0.00025542		-0.00053005		-0.00016140	
Ca		12.35024332		0.50337220		5.30342869		 0.00054381		-0.00089476		-0.00044777	
Ca		5.99315515		4.92179795		4.77321642		-0.00054381		 0.00089476		 0.00044777	
Ca		15.16485438		4.52208613		-0.54264909		-0.00054381		-0.00089476		-0.00044777	
Ca		3.17854409		2.20921287		-0.26510613		 0.00054381		 0.00089476		 0.00044777	
Ca		9.17169923		3.36565042		-0.40387761		0.00000000		0.00000000		0.00000000	
Ca		0.00000000		-0.65306351		5.44220017		0.00000000		0.00000000		0.00000000	
Ca		9.17169923		2.71258508		5.03832256		0.00000000		0.00000000		0.00000000	
Ca		0.00000000		0.00000000		0.00000000		0.00000000		0.00000000		0.00000000	
Si		7.68918577		3.86057549		7.60157403		-0.00011770		-0.00011182		-0.00009777	
Si		10.65421086		1.56459650		2.47506925		 0.00011770		 0.00011182		 0.00009777	
Si		10.65421086		0.90688111		7.95601801		 0.00001180		-0.00041133		-0.00066856	
Si		7.68918577		4.51828904		2.12062710		-0.00001180		 0.00041133		 0.00066856	
Si		1.48251346		0.49957512		7.96670488		 0.00001180		 0.00041133		 0.00066856	
Si		16.86088500		4.92559504		2.10994024		-0.00001180		-0.00041133		-0.00066856	
Si		16.86088500		4.27718158		7.51339181		-0.00011770		 0.00011182		 0.00009777	
Si		1.48251346		1.14799041		2.56325147		 0.00011770		-0.00011182		-0.00009777	
Si		12.17689820		4.29780690		4.84809601		 0.00022496		 0.00030006		 0.00031223	
Si		6.16650026		1.12736509		5.22854910		-0.00022496		-0.00030006		-0.00031223	
Si		15.33819949		1.58522182		-0.19022655		-0.00022496		 0.00030006		 0.00031223	
Si		3.00519897		5.14607902		-0.61752867		 0.00022496		-0.00030006		-0.00031223	
Si		6.20337049		1.90361186		-0.22843218		-0.00014241		-0.00009944		-0.00041651	
Si		12.14002797		4.82768898		-0.57932304		 0.00014241		 0.00009944		 0.00041651	
Si		2.96832874		4.61619693		4.80988855		 0.00014241		-0.00009944		-0.00041651	
Si		15.37506972		0.80897322		5.26675657		-0.00014241		 0.00009944		 0.00041651	
Mg		9.17169923		-0.65306351		5.44220017		-0.00000000		0.00000000		0.00000000	
Mg		0.00000000		3.36565042		-0.40387761		0.00000000		0.00000000		0.00000000	
Mg		9.17169923		0.00000000		0.00000000		-0.00000000		-0.00000000		-0.00000000	
Mg		0.00000000		2.71258508		5.03832256		-0.00000000		0.00000000		0.00000000	
O		5.29573914		1.57059663		1.12030288		 0.00007326		 0.00042405		-0.00021054	
O		13.04765933		3.85457536		8.95634040		-0.00007326		-0.00042405		 0.00021054	
O		13.04765933		4.84200784		0.72773398		-0.00003308		-0.00001054		 0.00034422	
O		5.29573914		0.58316415		9.34890930		 0.00003308		 0.00001054		-0.00034422	
O		3.87596009		4.60187624		3.50283152		-0.00003308		 0.00001054		-0.00034422	
O		14.46743837		0.82329391		6.57381175		 0.00003308		-0.00001054		 0.00034422	
O		14.46743837		1.14198845		3.91801967		 0.00007326		-0.00042405		 0.00021054	
O		3.87596009		4.28318171		6.15862544		-0.00007326		 0.00042405		-0.00021054	
O		12.78168005		5.20738265		3.45484519		 0.00024217		 0.00021961		-0.00005532	
O		5.56171841		0.21778934		6.62179992		-0.00024217		-0.00021961		 0.00005532	
O		5.56171841		0.53047641		4.01607431		 0.00037746		 0.00061285		 0.00010889	
O		12.78168005		4.89469558		6.06057080		-0.00037746		-0.00061285		-0.00010889	
O		14.73341764		2.18211050		1.02224825		 0.00037746		-0.00061285		-0.00010889	
O		3.60998082		3.24306149		9.05439503		-0.00037746		 0.00061285		 0.00010889	
O		3.60998082		4.23650326		0.77572031		 0.00024217		-0.00021961		 0.00005532	
O		14.73341764		1.18866873		9.30092297		-0.00024217		 0.00021961		-0.00005532	
O		8.72595465		4.13241731		8.73633701		-0.00047589		 0.00020243		 0.00004888	
O		9.61744381		1.29275468		1.34030627		 0.00047589		-0.00020243		-0.00004888	
O		9.61744381		0.35077347		9.19013618		 0.00020059		-0.00010973		-0.00004773	
O		8.72595465		5.07439852		0.88650893		-0.00020059		 0.00010973		 0.00004773	
O		0.44574458		1.05568459		6.73258671		 0.00020059		 0.00010973		 0.00004773	
O		17.89765388		4.36948740		3.34405657		-0.00020059		-0.00010973		-0.00004773	
O		17.89765388		4.00533975		6.37862699		-0.00047589		-0.00020243		-0.00004888	
O		0.44574458		1.41983224		3.69801629		 0.00047589		 0.00020243		 0.00004888	
O		6.21712804		4.42614832		7.90295240		-0.00000279		 0.00012153		 0.00021710	
O		12.12627042		0.99902367		2.17369272		 0.00000279		-0.00012153		-0.00021710	
O		12.12627042		0.25139628		8.40392345		 0.00010164		 0.00008477		 0.00007640	
O		6.21712804		5.17377571		1.67272167		-0.00010164		-0.00008477		-0.00007640	
O		2.95457119		1.15506179		7.51879944		 0.00010164		-0.00008477		-0.00007640	
O		15.38882727		4.27011020		2.55784384		-0.00010164		 0.00008477		 0.00007640	
O		15.38882727		3.71160875		7.21201344		-0.00000279		-0.00012153		-0.00021710	
O		2.95457119		1.71356141		2.86462984		 0.00000279		 0.00012153		 0.00021710	
O		6.89711782		3.33805278		-0.40056663		-0.00041769		 0.00004398		 0.00038639	
O		11.44628064		3.39324806		-0.40719043		 0.00041769		-0.00004398		-0.00038639	
O		2.27458141		6.05063785		4.63775593		 0.00041769		 0.00004398		 0.00038639	
O		16.06881705		-0.62546586		5.43888735		-0.00041769		-0.00004398		-0.00038639	
O		7.54830847		2.35573444		7.43157658		 0.00000686		 0.00022330		-0.00024898	
O		10.79508999		3.06943755		2.64506853		-0.00000686		-0.00022330		 0.00024898	
O		10.79508999		2.49709234		7.41461261		 0.00036926		-0.00010097		 0.00011494	
O		7.54830847		2.92807965		2.66203251		-0.00036926		 0.00010097		-0.00011494	
O		1.62339076		5.64066657		7.70035323		 0.00036926		 0.00010097		-0.00011494	
O		16.72000770		-0.21549458		2.37629005		-0.00036926		-0.00010097		 0.00011494	
O		16.72000770		-0.94927637		8.49114631		 0.00000686		-0.00022330		 0.00024898	
O		1.62339076		6.37444836		1.58549881		-0.00000686		 0.00022330		-0.00024898	
O		7.29700391		0.70342164		-0.08441082		-0.00007533		 0.00010256		-0.00031941	
O		11.04639455		6.02787920		-0.72334440		 0.00007533		-0.00010256		 0.00031941	
O		1.87469532		3.41600672		4.95391174		 0.00007533		 0.00010256		-0.00031941	
O		16.46870314		2.00916527		5.12273337		-0.00007533		-0.00010256		 0.00031941	
O		10.57313487		4.54215197		4.81877409		-0.00000041		 0.00002359		 0.00024956	
O		7.77026359		0.88301818		5.25786919		 0.00000041		-0.00002359		-0.00024956	
O		16.94196282		1.82956689		-0.21954847		 0.00000041		 0.00002359		 0.00024956	
O		1.40143564		4.90173211		-0.58820859		-0.00000041		-0.00002359		-0.00024956	
O		12.74132457		2.79739945		5.02814380		 0.00032055		-0.00016930		 0.00058269	
O		5.60207389		2.62777254		5.04849947		-0.00032055		 0.00016930		-0.00058269	
O		14.77377312		0.08481437		-0.01017875		-0.00032055		-0.00016930		 0.00058269	
O		3.56962534		6.64648463		-0.79757830		 0.00032055		 0.00016930		-0.00058269	
O		8.14997194		4.83868401		6.17349643		-0.00012230		-0.00011572		 0.00010449	
O		10.19342652		0.58648614		3.90314868		 0.00012230		 0.00011572		-0.00010449	
O		10.19342652		0.24793855		6.72438538		 0.00003242		 0.00036927		 0.00017282	
O		8.14997194		5.17723344		3.35225974		-0.00003242		-0.00036927		-0.00017282	
O		1.02172729		1.15851952		9.19833751		 0.00003242		-0.00036927		-0.00017282	
O		17.32167117		4.26665247		0.87830760		-0.00003242		 0.00036927		 0.00017282	
O		17.32167117		3.29907305		8.94147124		-0.00012230		 0.00011572		-0.00010449	
O		1.02172729		2.12609894		1.13517388		 0.00012230		-0.00011572		 0.00010449	
