# total energy = -66809.6771921 eV	

CRYSTAL	
PRIMVEC	
		18.34339846		0.00000000		0.00000000	
		0.00000000		6.73129350		-0.53850715	
		0.00000000		-0.87076112		10.88440400	
PRIMCOORD
   112 1	
Ca		14.17192622		6.52244840		1.98268108		-0.00044754		-0.00008724		 0.00003457	
Ca		4.17147224		-0.66190136		8.36321394		 0.00044754		 0.00008724		-0.00003457	
Ca		4.17147224		-0.19444553		2.52003259		 0.00013050		 0.00025907		-0.00003101	
Ca		14.17192622		6.05499441		7.82586243		-0.00013050		-0.00025907		 0.00003101	
Ca		13.34317147		3.12471905		2.65291584		 0.00013050		-0.00025907		 0.00003101	
Ca		5.00022699		2.73582800		7.69298102		-0.00013050		 0.00025907		-0.00003101	
Ca		5.00022699		3.13912412		2.65176204		-0.00044754		 0.00008724		-0.00003457	
Ca		13.34317147		2.72142293		7.69413298		 0.00044754		-0.00008724		 0.00003457	
Ca		7.55546239		0.41281085		8.06332139		-0.00059565		-0.00066310		-0.00009170	
Ca		10.78793607		5.44773804		2.28257363		 0.00059565		 0.00066310		 0.00009170	
Ca		10.78793607		5.01472928		7.69516938		-0.00042551		-0.00006541		 0.00023897	
Ca		7.55546239		0.84581777		2.65072747		 0.00042551		 0.00006541		-0.00023897	
Ca		1.61623684		3.77609130		7.82367590		-0.00042551		 0.00006541		-0.00023897	
Ca		16.72716162		2.08445759		2.52221912		 0.00042551		-0.00006541		 0.00023897	
Ca		16.72716162		1.64671256		7.99402553		-0.00059565		 0.00066310		 0.00009170	
Ca		1.61623684		4.21383632		2.35186948		 0.00059565		-0.00066310		-0.00009170	
Ca		6.10413271		5.40388814		-0.43231171		 0.00017272		 0.00005179		 0.00038587	
Ca		12.23926575		1.32741269		-0.10619360		-0.00017272		-0.00005179		-0.00038587	
Ca		3.06756652		1.60286267		5.27914019		-0.00017272		 0.00005179		 0.00038587	
Ca		15.27583194		4.25768622		5.06675482		 0.00017272		-0.00005179		-0.00038587	
Ca		12.35024332		0.72106065		5.34968524		 0.00011229		-0.00060869		 0.00029535	
Ca		5.99315515		5.13948640		4.99621162		-0.00011229		 0.00060869		-0.00029535	
Ca		15.16485438		4.52208613		-0.36176667		-0.00011229		-0.00060869		 0.00029535	
Ca		3.17854409		2.20921287		-0.17673681		 0.00011229		 0.00060869		-0.00029535	
Ca		9.17169923		3.36565042		-0.26925174		0.00000000		-0.00000000		-0.00000000	
Ca		0.00000000		-0.43537689		5.44220017		0.00000000		0.00000000		0.00000000	
Ca		9.17169923		2.93027352		5.17294843		0.00000000		0.00000000		0.00000000	
Ca		0.00000000		0.00000000		0.00000000		0.00000000		-0.00000000		-0.00000000	
Si		7.68918577		4.18788225		7.79527298		 0.00004330		-0.00012752		 0.00022776	
Si		10.65421086		1.67266480		2.55062204		-0.00004330		 0.00012752		-0.00022776	
Si		10.65421086		1.23418971		8.03156897		 0.00029704		-0.00027240		-0.00012031	
Si		7.68918577		4.62635918		2.31432605		-0.00029704		 0.00027240		 0.00012031	
Si		1.48251346		0.82533370		8.02577796		 0.00029704		 0.00027240		 0.00012031	
Si		16.86088500		5.03521518		2.32011706		-0.00029704		-0.00027240		-0.00012031	
Si		16.86088500		4.60293833		7.72357047		 0.00004330		 0.00012752		-0.00022776	
Si		1.48251346		1.25760872		2.62232639		-0.00004330		-0.00012752		 0.00022776	
Si		12.17689820		4.51549534		5.04613134		-0.00019493		-0.00040847		 0.00013877	
Si		6.16650026		1.34505354		5.29976551		 0.00019493		 0.00040847		-0.00013877	
Si		15.33819949		1.58522182		-0.12681709		 0.00019493		-0.00040847		 0.00013877	
Si		3.00519897		5.14607902		-0.41168639		-0.00019493		 0.00040847		-0.00013877	
Si		6.20337049		1.90361186		-0.15228873		 0.00024655		 0.00041593		-0.00052840	
Si		12.14002797		4.82768898		-0.38621475		-0.00024655		-0.00041593		 0.00052840	
Si		2.96832874		4.83388538		5.02065970		-0.00024655		 0.00041593		-0.00052840	
Si		15.37506972		1.02666167		5.32523715		 0.00024655		-0.00041593		 0.00052840	
Mg		9.17169923		-0.43537689		5.44220017		0.00000000		0.00000000		0.00000000	
Mg		0.00000000		3.36565042		-0.26925174		0.00000000		-0.00000000		-0.00000000	
Mg		9.17169923		0.00000000		0.00000000		-0.00000000		0.00000000		0.00000000	
Mg		0.00000000		2.93027352		5.17294843		-0.00000000		0.00000000		0.00000000	
O		5.29573914		1.62371177		1.18950152		 0.00027551		-0.00000638		-0.00076724	
O		13.04765933		4.23683528		9.15639533		-0.00027551		 0.00000638		 0.00076724	
O		13.04765933		4.89512298		0.92778708		 0.00060200		 0.00037365		-0.00015701	
O		5.29573914		0.96542407		9.41810794		-0.00060200		-0.00037365		 0.00015701	
O		3.87596009		4.76644954		3.70665603		 0.00060200		-0.00037365		 0.00015701	
O		14.46743837		1.09409750		6.63923899		-0.00060200		 0.00037365		-0.00015701	
O		14.46743837		1.30656175		3.98344691		 0.00027551		 0.00000638		 0.00076724	
O		3.87596009		4.55398530		6.36244811		-0.00027551		-0.00000638		-0.00076724	
O		12.78168005		5.37295751		3.68300956		-0.00001480		-0.00041949		 0.00007813	
O		5.56171841		0.48759138		6.66288730		 0.00001480		 0.00041949		-0.00007813	
O		5.56171841		0.69604943		4.05716169		 0.00016558		 0.00009867		 0.00024572	
O		12.78168005		5.16449946		6.28873516		-0.00016558		-0.00009867		-0.00024572	
O		14.73341764		2.23422410		1.11578674		 0.00016558		-0.00009867		-0.00024572	
O		3.60998082		3.62632295		9.23011011		-0.00016558		 0.00009867		 0.00024572	
O		3.60998082		4.28861686		0.95143539		-0.00001480		 0.00041949		-0.00007813	
O		14.73341764		1.57193019		9.39446146		 0.00001480		-0.00041949		 0.00007813	
O		8.72595465		4.50710324		8.94659638		-0.00010034		 0.00007811		 0.00042909	
O		9.61744381		1.35344564		1.39929864		 0.00010034		-0.00007811		-0.00042909	
O		9.61744381		0.72545940		9.24912855		-0.00012235		-0.00020039		-0.00065877	
O		8.72595465		5.13508949		1.09676830		 0.00012235		 0.00020039		 0.00065877	
O		0.44574458		1.33406217		6.80822021		-0.00012235		 0.00020039		 0.00065877	
O		17.89765388		4.52648487		3.53767664		 0.00012235		-0.00020039		-0.00065877	
O		17.89765388		4.28371917		6.57224706		-0.00010034		-0.00007811		-0.00042909	
O		0.44574458		1.57682972		3.77364979		 0.00010034		 0.00007811		 0.00042909	
O		6.21712804		4.76844164		8.12107191		-0.00008122		 0.00004595		-0.00070988	
O		12.12627042		1.09210725		2.22482311		 0.00008122		-0.00004595		 0.00070988	
O		12.12627042		0.59368776		8.45505384		 0.00021682		-0.00023615		 0.00061792	
O		6.21712804		5.26685929		1.89084302		-0.00021682		 0.00023615		-0.00061792	
O		2.95457119		1.46583381		7.60229492		 0.00021682		 0.00023615		-0.00061792	
O		15.38882727		4.39471324		2.74360010		-0.00021682		-0.00023615		 0.00061792	
O		15.38882727		4.02238077		7.39777153		-0.00008122		-0.00004595		 0.00070988	
O		2.95457119		1.83816628		2.94812532		 0.00008122		 0.00004595		-0.00070988	
O		6.89711782		3.33805278		-0.26704319		 0.00041142		 0.00042222		 0.00046427	
O		11.44628064		3.39324806		-0.27146029		-0.00041142		-0.00042222		-0.00046427	
O		2.27458141		6.26832630		4.90590340		-0.00041142		 0.00042222		 0.00046427	
O		16.06881705		-0.40777742		5.43999162		 0.00041142		-0.00042222		-0.00046427	
O		7.54830847		2.66881223		7.56337390		-0.00033470		 0.00034882		-0.00017654	
O		10.79508999		3.19173482		2.78252112		 0.00033470		-0.00034882		 0.00017654	
O		10.79508999		2.81017012		7.55206519		 0.00001509		-0.00018846		 0.00009452	
O		7.54830847		3.05037693		2.79382982		-0.00001509		 0.00018846		-0.00009452	
O		1.62339076		5.98065045		7.96677825		 0.00001509		 0.00018846		-0.00009452	
O		16.72000770		-0.12010340		2.37911860		-0.00001509		-0.00018846		 0.00009452	
O		16.72000770		-0.60929249		8.49397302		-0.00033470		-0.00034882		 0.00017654	
O		1.62339076		6.46983954		1.85192199		 0.00033470		 0.00034882		-0.00017654	
O		7.29700391		0.70342164		-0.05627388		-0.00024593		 0.00009555		 0.00024474	
O		11.04639455		6.02787920		-0.48222960		 0.00024593		-0.00009555		-0.00024474	
O		1.87469532		3.63369516		5.11667455		 0.00024593		 0.00009555		 0.00024474	
O		16.46870314		2.22685372		5.22922230		-0.00024593		-0.00009555		-0.00024474	
O		10.57313487		4.75984042		5.02658278		-0.00019303		 0.00012350		 0.00028681	
O		7.77026359		1.10070663		5.31931407		 0.00019303		-0.00012350		-0.00028681	
O		16.94196282		1.82956689		-0.14636564		 0.00019303		 0.00012350		 0.00028681	
O		1.40143564		4.90173211		-0.39213967		-0.00019303		-0.00012350		-0.00028681	
O		12.74132457		3.01508790		5.16616320		 0.00048031		-0.00011560		-0.00001667	
O		5.60207389		2.84545915		5.17973365		-0.00048031		 0.00011560		 0.00001667	
O		14.77377312		0.08481437		-0.00678522		-0.00048031		-0.00011560		-0.00001667	
O		3.56962534		6.64648463		-0.53171826		 0.00048031		 0.00011560		 0.00001667	
O		8.14997194		5.11279859		6.39993652		 0.00011570		-0.00025384		 0.00011257	
O		10.19342652		0.74775029		3.94596034		-0.00011570		 0.00025384		-0.00011257	
O		10.19342652		0.52205129		6.76719520		-0.00051852		 0.00070264		 0.00011130	
O		8.14997194		5.33849760		3.57869982		 0.00051852		-0.00070264		-0.00011130	
O		1.02172729		1.53747029		9.29015173		-0.00051852		-0.00070264		-0.00011130	
O		17.32167117		4.32307676		1.05574329		 0.00051852		 0.00070264		 0.00011130	
O		17.32167117		3.67802382		9.11890693		 0.00011570		 0.00025384		-0.00011257	
O		1.02172729		2.18252323		1.22698809		-0.00011570		-0.00025384		 0.00011257	
