# total energy = -14250.0846946 eV

CRYSTAL
PRIMVEC
		7.46699986		0.00000000		0.00000000
		0.00000000		7.86000300		0.00000000
		0.00000000		0.00000000		5.02399912
PRIMECORD
   24 1
O		1.04978626		2.82496318		1.27780379		-0.00012636		 0.00034319		 0.00016210
O		6.41721360		5.03503758		1.27780379		 0.00012636		-0.00034319		 0.00016210
O		2.68371367		6.75496318		3.74619607		 0.00012636		 0.00034319		-0.00016210
O		4.78328619		1.10503683		3.74619607		-0.00012636		-0.00034319		-0.00016210
O		0.61841693		1.46384633		3.96061993		 0.00018119		-0.00035756		 0.00007840
O		6.84858293		6.39615368		3.96061993		-0.00018119		 0.00035756		 0.00007840
O		1.39065405		7.20903518		1.06337993		-0.00007328		 0.00009673		-0.00055611
O		6.07634581		0.65096483		1.06337993		 0.00007328		-0.00009673		-0.00055611
O		3.11508300		5.39384709		1.06337993		-0.00018119		-0.00035756		-0.00007840
O		4.35191686		2.46615367		1.06337993		 0.00018119		 0.00035756		-0.00007840
O		2.34284588		3.27903517		3.96061993		 0.00007328		 0.00009673		 0.00055611
O		5.12415398		4.58096484		3.96061993		-0.00007328		-0.00009673		 0.00055611
O		0.00000000		3.93000001		4.11616277		0.00000000		0.00000000		-0.00022547
O		3.73349993		0.00000000		0.90783710		0.00000000		0.00000000		 0.00022547
Ca		2.47652011		1.32313669		2.54686671		 0.00091074		-0.00008659		-0.00064465
Ca		4.99047975		6.53686257		2.54686671		-0.00091074		 0.00008659		-0.00064465
Ca		1.25697982		5.25313670		2.47713315		-0.00091074		-0.00008659		 0.00064465
Ca		6.21002004		2.60686331		2.47713315		 0.00091074		 0.00008659		 0.00064465
Si		1.04470795		2.83030731		4.69934890		 0.00029323		-0.00023457		 0.00001621
Si		6.42229191		5.02969270		4.69934890		-0.00029323		 0.00023457		 0.00001621
Si		2.68879198		6.76030806		0.32465097		-0.00029323		-0.00023457		-0.00001621
Si		4.77820788		1.09969270		0.32465097		 0.00029323		 0.00023457		-0.00001621
Mg		0.00000000		0.00000000		0.00000000		0.00000000		0.00000000		 0.00018154
Mg		3.73349993		3.93000001		0.00000000		0.00000000		0.00000000		-0.00018154
