# total energy = -14249.5760983 eV

CRYSTAL
PRIMVEC
		7.27049996		0.00000000		0.00000000
		0.00000000		7.85999937		0.00000000
		0.00000000		0.00000000		5.02400272
PRIMECORD
   24 1
O		1.02216032		2.82496294		1.27780418		-0.00063148		-0.00020058		-0.00026625
O		6.24833965		5.03503788		1.27780418		 0.00063148		 0.00020058		-0.00026625
O		2.61308966		6.75496262		3.74619563		 0.00063148		-0.00020058		 0.00026625
O		4.65741030		1.10503675		3.74619563		-0.00063148		 0.00020058		 0.00026625
O		0.60214281		1.46384610		3.96062012		 0.00016187		 0.00083498		-0.00015055
O		6.66835715		6.39615400		3.96062012		-0.00016187		-0.00083498		-0.00015055
O		1.35405791		7.20903516		1.06337969		-0.00053519		 0.00068397		 0.00023521
O		5.91644205		0.65096494		1.06337969		 0.00053519		-0.00068397		 0.00023521
O		3.03310717		5.39384724		1.06337969		-0.00016187		 0.00083498		 0.00015055
O		4.23739279		2.46615431		1.06337969		 0.00016187		-0.00083498		 0.00015055
O		2.28119207		3.27903474		3.96062012		 0.00053519		 0.00068397		-0.00023521
O		4.98930789		4.58096463		3.96062012		-0.00053519		-0.00068397		-0.00023521
O		0.00000000		3.92999968		4.11616302		0.00000000		0.00000000		 0.00002705
O		3.63524998		0.00000000		0.90783679		0.00000000		0.00000000		-0.00002705
Ca		2.41134929		1.32313720		2.54686704		 0.00006381		 0.00092755		 0.00020813
Ca		4.85915213		6.53686289		2.54686704		-0.00006381		-0.00092755		 0.00020813
Ca		1.22390070		5.25313689		2.47713277		-0.00006381		 0.00092755		-0.00020813
Ca		6.04659927		2.60686321		2.47713277		 0.00006381		-0.00092755		-0.00020813
Si		1.01721565		2.83030676		4.69934872		-0.00003594		 0.00060093		-0.00011250
Si		6.25328504		5.02969261		4.69934872		 0.00003594		-0.00060093		-0.00011250
Si		2.61803433		6.76030790		0.32465109		 0.00003594		 0.00060093		 0.00011250
Si		4.65246563		1.09969293		0.32465109		-0.00003594		-0.00060093		 0.00011250
Mg		0.00000000		0.00000000		0.00000000		0.00000000		0.00000000		-0.00092886
Mg		3.63524998		3.92999968		0.00000000		0.00000000		0.00000000		 0.00092886
