# total energy = -14250.3734618 eV

CRYSTAL
PRIMVEC
		7.66349976		0.00000000		0.00000000
		0.00000000		7.85999956		0.00000000
		0.00000000		0.00000000		5.02399885
PRIMECORD
   24 1
O		1.07741066		2.82496296		1.27780429		-0.00032885		 0.00015537		 0.00000758
O		6.58608909		5.03503813		1.27780429		 0.00032885		-0.00015537		 0.00000758
O		2.75433768		6.75496274		3.74619610		 0.00032885		 0.00015537		-0.00000758
O		4.90916208		1.10503682		3.74619610		-0.00032885		-0.00015537		-0.00000758
O		0.63469105		1.46384571		3.96062006		-0.00004211		-0.00030391		 0.00019322
O		7.02880871		6.39615385		3.96062006		 0.00004211		 0.00030391		 0.00019322
O		1.42725020		7.20903507		1.06338033		-0.00050082		 0.00023494		-0.00061755
O		6.23624956		0.65096526		1.06338033		 0.00050082		-0.00023494		-0.00061755
O		3.19705883		5.39384702		1.06338033		 0.00004211		-0.00030391		-0.00019322
O		4.46644093		2.46615407		1.06338033		-0.00004211		 0.00030391		-0.00019322
O		2.40449968		3.27903452		3.96062006		 0.00050082		 0.00023494		 0.00061755
O		5.25900007		4.58096504		3.96062006		-0.00050082		-0.00023494		 0.00061755
O		0.00000000		3.92999978		4.11616305		0.00000000		0.00000000		 0.00015929
O		3.83174988		0.00000000		0.90783734		0.00000000		0.00000000		-0.00015929
Ca		2.54169166		1.32313695		2.54686682		 0.00053715		 0.00005337		-0.00060443
Ca		5.12180810		6.53686260		2.54686682		-0.00053715		-0.00005337		-0.00060443
Ca		1.29005822		5.25313673		2.47713280		-0.00053715		 0.00005337		 0.00060443
Ca		6.37344154		2.60686283		2.47713280		 0.00053715		-0.00005337		 0.00060443
Si		1.07220025		2.83030672		4.69934848		 0.00040915		-0.00024783		-0.00011322
Si		6.59129951		5.02969284		4.69934848		-0.00040915		 0.00024783		-0.00011322
Si		2.75954963		6.76030803		0.32465114		-0.00040915		-0.00024783		 0.00011322
Si		4.90395013		1.09969306		0.32465114		 0.00040915		 0.00024783		 0.00011322
Mg		0.00000000		0.00000000		0.00000000		0.00000000		0.00000000		 0.00020859
Mg		3.83174988		3.92999978		0.00000000		0.00000000		0.00000000		-0.00020859
