# total energy = -20638.8811464 eV

CRYSTAL
PRIMVEC
		10.20140980		0.00000000		0.00000000
		0.00000000		5.98348390		0.00000000
		0.00000000		0.00000000		4.75533617
PRIMECORD
   28 1
Mg		0.00000000		0.00000000		0.00000000		0.00000000		0.00000000		0.00000000
Mg		5.10070490		0.00000000		2.37767013		0.00000000		0.00000000		0.00000000
Mg		0.00000000		2.99173991		0.00000000		0.00000000		0.00000000		0.00000000
Mg		5.10070490		2.99173991		2.37767013		0.00000000		0.00000000		0.00000000
Mg		2.82885094		1.49587046		4.71492022		 0.00018770		0.00000000		-0.00029232
Mg		7.37255886		4.48761037		0.04042003		-0.00018770		-0.00000000		 0.00029232
Mg		2.27185396		4.48761037		2.33725010		-0.00018770		-0.00000000		-0.00029232
Mg		7.92955584		1.49587046		2.41809015		 0.00018770		0.00000000		 0.00029232
Si		0.95893252		1.49587046		2.02767710		-0.00002808		0.00000000		-0.00028635
Si		9.24247830		4.48761037		2.72766315		 0.00002808		0.00000000		 0.00028635
Si		4.14177340		4.48761037		4.40534722		 0.00002808		0.00000000		-0.00028635
Si		6.05963742		1.49587046		0.34999303		-0.00002808		-0.00000000		 0.00028635
O		0.93444914		1.49587046		3.63926215		-0.00015770		0.00000000		-0.00056898
O		9.26696066		4.48761037		1.11607810		 0.00015770		0.00000000		 0.00056898
O		4.16625576		4.48761037		1.26159203		 0.00015770		0.00000000		-0.00056898
O		6.03515404		1.49587046		3.49374822		-0.00015770		0.00000000		 0.00056898
O		4.55901004		1.49587046		1.05140626		 0.00001843		0.00000000		-0.00037453
O		5.64239976		4.48761037		3.70393501		-0.00001843		0.00000000		 0.00037453
O		0.54169486		4.48761037		3.42907639		-0.00001843		-0.00000000		-0.00037453
O		9.65971596		1.49587046		1.32626386		 0.00001843		0.00000000		 0.00037453
O		1.65976937		0.19865205		1.32103258		-0.00010564		 0.00009476		-0.00016350
O		8.54164042		5.78482776		3.43430665		 0.00010564		-0.00009476		 0.00016350
O		3.44093552		5.78482776		3.69870271		 0.00010564		-0.00009476		-0.00016350
O		6.76047529		0.19865205		1.05663652		-0.00010564		 0.00009476		 0.00016350
O		8.54164042		3.19039196		3.43430665		 0.00010564		 0.00009476		 0.00016350
O		1.65976937		2.79308785		1.32103258		-0.00010564		-0.00009476		-0.00016350
O		6.76047529		2.79308785		1.05663652		-0.00010564		-0.00009476		 0.00016350
O		3.44093552		3.19039196		3.69870271		 0.00010564		 0.00009476		-0.00016350
