# total energy = -7657.73846009 eV

CRYSTAL
PRIMVEC
		5.67741691		-0.00004433		-0.00011635
		-2.83875001		4.91669540		-0.00003324
		-0.00018284		-0.00021609		6.12867923
PRIMECORD
   15 1
Mg		-0.00005762		0.00002438		0.00000000		 0.00000511		-0.00000205		 0.00000368
Mg		-0.00008034		3.27782334		-0.01190586		 0.00000567		-0.00000949		 0.00023839
Mg		2.83845136		1.63866816		6.14043438		 0.00000303		 0.00000731		-0.00023090
O		0.94118987		1.64067500		1.01886993		 0.00018469		-0.00000435		-0.00045199
O		1.89721717		3.27577772		5.10965748		-0.00017822		 0.00000500		 0.00041145
O		0.94737329		4.91148049		1.01870703		-0.00011435		 0.00013750		 0.00019120
O		1.89099552		0.00500602		5.10982648		 0.00012010		-0.00014506		-0.00009469
O		-1.88845511		3.28156332		1.01884278		-0.00010128		-0.00018767		-0.00013719
O		4.72688764		1.63494425		5.10976110		 0.00009375		 0.00018002		-0.00015843
H		0.92166610		1.64579627		1.98065347		 0.00036634		 0.00017016		 0.00052119
H		1.91701576		3.27044535		4.14785566		-0.00037563		-0.00016209		-0.00047499
H		0.95220035		4.89136276		1.98083243		-0.00031778		 0.00026827		-0.00011985
H		1.88630033		0.02498357		4.14775482		 0.00031441		-0.00026226		 0.00001589
H		-1.87423601		3.29552422		1.98080861		-0.00004217		-0.00039845		 0.00019812
H		4.71294557		1.62092961		4.14763403		 0.00003631		 0.00040314		 0.00008814
