# total energy = -7657.36689335 eV

CRYSTAL
PRIMVEC
		5.81908153		0.00000554		0.00000554
		-2.90953799		5.03947177		0.00000000
		0.00000554		0.00000000		6.31412092
PRIMECORD
   15 1
Mg		0.00000000		0.00000000		0.00000000		 0.00000487		-0.00000230		 0.00001601
Mg		0.00000000		3.35965339		-0.01456650		-0.00000025		-0.00000522		 0.00049965
Mg		2.90954630		1.67982559		6.32868299		-0.00000454		 0.00000818		-0.00046783
O		0.96829663		1.67985384		0.99965644		-0.00048802		 0.00044872		-0.00110874
O		1.94124912		3.35962569		5.31458360		 0.00050170		-0.00045640		 0.00068682
O		0.97059602		5.03811874		0.99943758		-0.00014021		-0.00066975		-0.00026863
O		1.93895194		0.00135858		5.31468389		 0.00013595		 0.00066727		 0.00029098
O		-1.93888989		3.36097596		0.99966309		 0.00062837		 0.00020036		-0.00114192
O		4.84844007		1.67850358		5.31469719		-0.00064712		-0.00020696		 0.00025864
H		0.94715498		1.69118735		1.96189266		 0.00038840		-0.00016213		 0.00110481
H		1.96238855		3.34829052		4.35212299		-0.00039564		 0.00016605		-0.00069892
H		0.97135399		5.01414523		1.96211706		-0.00005321		 0.00043591		 0.00030425
H		1.93819176		0.02533264		4.35201328		 0.00005185		-0.00043648		-0.00032135
H		-1.91850288		3.37362427		1.96188213		-0.00033532		-0.00025426		 0.00113636
H		4.82804420		1.66584972		4.35200996		 0.00035316		 0.00026698		-0.00029012
