# total energy = -41266.3401804 eV	

CRYSTAL	
PRIMVEC	
		5.69829968		0.00000000		0.00000000	
		0.00000000		11.43799751		-1.37256084	
		0.00000000		-0.99079186		8.25659691	
PRIMCOORD
   56 1	
Mg		0.00000000		0.00000000		0.00000000		0.00000000		0.00000000		0.00000000	
Mg		0.00000000		5.71899990		-0.68627985		0.00000000		0.00000000		0.00000000	
Mg		2.84914984		5.22360397		3.44201975		0.00000000		0.00000000		0.00000000	
Mg		2.84914984		-0.49539593		4.12829960		0.00000000		0.00000000		0.00000000	
Mg		0.00000000		1.89833270		7.66658756		0.00000000		-0.00044378		-0.00051719	
Mg		0.00000000		8.54887467		-0.78254807		0.00000000		 0.00044378		 0.00051719	
Mg		2.84914984		8.11272738		2.85200811		0.00000000		-0.00044378		-0.00051719	
Mg		2.84914984		2.33447884		4.03203252		0.00000000		 0.00044378		 0.00051719	
Mg		1.42457492		1.21179072		1.88901085		 0.00013373		-0.00033859		-0.00037779	
Mg		4.27372476		9.23541664		4.99502864		-0.00013373		 0.00033859		 0.00037779	
Mg		4.27372476		4.01181267		1.55300890		 0.00013373		 0.00033859		 0.00037781	
Mg		1.42457492		6.43539469		5.33103173		-0.00013373		-0.00033859		-0.00037781	
Mg		4.27372476		6.43539469		5.33103173		 0.00013373		-0.00033859		-0.00037781	
Mg		1.42457492		4.01181267		1.55300890		-0.00013373		 0.00033859		 0.00037781	
Mg		1.42457492		9.23541664		4.99502864		 0.00013373		 0.00033859		 0.00037779	
Mg		4.27372476		1.21179072		1.88901085		-0.00013373		-0.00033859		-0.00037779	
Si		0.00000000		0.75915199		4.92823887		-0.00000000		 0.00010700		 0.00055393	
Si		0.00000000		9.68805538		1.95580176		-0.00000000		-0.00010700		-0.00055393	
Si		0.00000000		3.73760707		4.57082385		0.00000000		 0.00039922		-0.00005732	
Si		0.00000000		6.70959972		2.31321678		0.00000000		-0.00039922		 0.00005732	
Si		2.84914984		6.97354667		0.11365772		-0.00000000		 0.00010697		 0.00055400	
Si		2.84914984		3.47365955		6.77038177		-0.00000000		-0.00010697		-0.00055400	
Si		2.84914984		9.95200233		-0.24375617		0.00000000		 0.00039933		-0.00005717	
Si		2.84914984		0.49520504		7.12779680		0.00000000		-0.00039933		 0.00005717	
O		0.00000000		2.64489372		1.44523980		0.00000000		 0.00044920		-0.00009851	
O		0.00000000		7.80231251		5.43880083		0.00000000		-0.00044920		 0.00009851	
O		2.84914984		7.86849769		4.88725955		0.00000000		 0.00044919		-0.00009849	
O		2.84914984		2.57870911		1.99678108		0.00000000		-0.00044919		 0.00009849	
O		0.00000000		2.14969609		5.57188860		0.00000000		 0.00057537		 0.00011205	
O		0.00000000		8.29751070		1.31215203		0.00000000		-0.00057537		-0.00011205	
O		2.84914984		8.36409135		0.75730916		0.00000000		 0.00057536		 0.00011203	
O		2.84914984		2.08311488		6.12673147		0.00000000		-0.00057536		-0.00011203	
O		0.00000000		11.07017455		0.75320410		0.00000000		 0.00026120		-0.00053286	
O		0.00000000		-0.62296775		6.13083539		0.00000000		-0.00026120		 0.00053286	
O		0.00000000		5.57993460		1.41203296		-0.00000000		-0.00009950		 0.00003580	
O		0.00000000		4.86727276		5.47200767		-0.00000000		 0.00009950		-0.00003580	
O		2.84914984		4.85577872		5.56778355		-0.00000000		 0.00026118		-0.00053283	
O		2.84914984		5.59142750		1.31625594		-0.00000000		-0.00026118		 0.00053283	
O		2.84914984		-0.63446122		6.22661241		0.00000000		-0.00009940		 0.00003590	
O		2.84914984		11.08166745		0.65742708		0.00000000		 0.00009940		-0.00003590	
O		1.49010480		0.41779420		8.02653661		 0.00041914		 0.00032616		 0.00046036	
O		4.20819375		10.02941316		-1.14249712		-0.00041914		-0.00032616		-0.00046036	
O		4.20819375		3.33448371		7.67653451		-0.00007103		 0.00019705		-0.00051419	
O		1.49010480		7.11272365		-0.79249388		 0.00007103		-0.00019705		 0.00051419	
O		4.20819375		7.11272365		-0.79249388		-0.00007103		-0.00019705		 0.00051419	
O		1.49010480		3.33448371		7.67653451		 0.00007103		 0.00019705		-0.00051419	
O		1.49010480		10.02941316		-1.14249712		 0.00041914		-0.00032616		-0.00046036	
O		4.20819375		0.41779420		8.02653661		-0.00041914		 0.00032616		 0.00046036	
O		4.33925464		6.63218946		3.21195659		 0.00041918		 0.00032616		 0.00046034	
O		1.35904504		3.81501791		3.67208290		-0.00041918		-0.00032616		-0.00046034	
O		1.35904504		9.54887954		2.86195392		-0.00007105		 0.00019705		-0.00051420	
O		4.33925464		0.89832783		4.02208557		 0.00007105		-0.00019705		 0.00051420	
O		1.35904504		0.89832783		4.02208557		-0.00007105		-0.00019705		 0.00051420	
O		4.33925464		9.54887954		2.86195392		 0.00007105		 0.00019705		-0.00051420	
O		4.33925464		3.81501791		3.67208290		 0.00041918		-0.00032616		-0.00046034	
O		1.35904504		6.63218946		3.21195659		-0.00041918		 0.00032616		 0.00046034	
