# total energy = -41274.3325227 eV	

CRYSTAL	
PRIMVEC	
		5.69829968		0.00000000		0.00000000	
		0.00000000		11.43799751		0.45752218	
		0.00000000		0.33026205		8.25659691	
PRIMCOORD
   56 1	
Mg		0.00000000		0.00000000		0.00000000		0.00000000		0.00000000		0.00000000	
Mg		0.00000000		5.71899990		0.22875995		0.00000000		0.00000000		0.00000000	
Mg		2.84914984		5.88413149		4.35705955		0.00000000		0.00000000		0.00000000	
Mg		2.84914984		0.16513217		4.12829960		0.00000000		0.00000000		0.00000000	
Mg		0.00000000		3.17988884		8.12410746		0.00000000		 0.00038260		-0.00026717	
Mg		0.00000000		8.58837471		0.59001221		0.00000000		-0.00038260		 0.00026717	
Mg		2.84914984		8.73375657		4.22456781		0.00000000		 0.00038258		-0.00026716	
Mg		2.84914984		3.03450698		4.48955299		0.00000000		-0.00038258		 0.00026716	
Mg		1.42457492		1.54205506		2.12253002		-0.00052803		 0.00000167		 0.00062649	
Mg		4.27372476		10.22620850		6.59159078		 0.00052803		-0.00000167		-0.00062649	
Mg		4.27372476		4.34207701		2.23453067		-0.00052803		-0.00000167		-0.00062650	
Mg		1.42457492		7.42618655		6.47958956		 0.00052803		 0.00000167		 0.00062650	
Mg		4.27372476		7.42618655		6.47958956		-0.00052803		 0.00000167		 0.00062650	
Mg		1.42457492		4.34207701		2.23453067		 0.00052803		-0.00000167		-0.00062650	
Mg		1.42457492		10.22620850		6.59159078		-0.00052803		-0.00000167		-0.00062649	
Mg		4.27372476		1.54205506		2.12253002		 0.00052803		 0.00000167		 0.00062649	
Si		0.00000000		1.57397864		5.14748152		0.00000000		-0.00089269		 0.00021116	
Si		0.00000000		10.19428435		3.56663757		0.00000000		 0.00089269		-0.00021116	
Si		0.00000000		4.55243373		5.26661986		0.00000000		-0.00049353		-0.00049520	
Si		0.00000000		7.21582869		3.44749980		0.00000000		 0.00049353		 0.00049520	
Si		2.84914984		7.12784637		1.24794188		-0.00000000		-0.00089266		 0.00021112	
Si		2.84914984		4.64041662		7.46617779		-0.00000000		 0.00089266		-0.00021112	
Si		2.84914984		10.10630260		1.36707965		0.00000000		-0.00049352		-0.00049522	
Si		2.84914984		1.66196210		7.34703945		0.00000000		 0.00049352		 0.00049522	
O		0.00000000		2.93103498		1.90275971		-0.00000000		-0.00058153		-0.00037438	
O		0.00000000		8.83722858		6.81136053		-0.00000000		 0.00058153		 0.00037438	
O		2.84914984		8.81516647		6.25981982		0.00000000		-0.00058152		-0.00037439	
O		2.84914984		2.95309708		2.45430098		0.00000000		 0.00058152		 0.00037439	
O		0.00000000		3.09610104		6.02940850		0.00000000		-0.00050044		-0.00065232	
O		0.00000000		8.67216251		2.68471173		0.00000000		 0.00050044		 0.00065232	
O		2.84914984		8.64996877		2.12986886		0.00000000		-0.00050045		-0.00065232	
O		2.84914984		3.11829478		6.58425137		0.00000000		 0.00050045		 0.00065232	
O		0.00000000		11.40810025		2.56498304		0.00000000		-0.00064644		-0.00033212	
O		0.00000000		0.36016217		6.14913662		0.00000000		 0.00064644		 0.00033212	
O		0.00000000		5.91786087		2.34537399		0.00000000		-0.00018852		 0.00085574	
O		0.00000000		5.85040155		6.36874681		0.00000000		 0.00018852		-0.00085574	
O		2.84914984		5.85423365		6.46452269		0.00000000		-0.00064642		-0.00033213	
O		2.84914984		5.91402990		2.24959697		0.00000000		 0.00064642		 0.00033213	
O		2.84914984		0.36399314		6.24491364		-0.00000000		-0.00018852		 0.00085573	
O		2.84914984		11.40426928		2.46920659		-0.00000000		 0.00018852		-0.00085573	
O		1.49010480		1.72894162		8.25072140		 0.00014751		-0.00040665		 0.00007595	
O		4.20819375		10.03932137		0.46339770		-0.00014751		 0.00040665		-0.00007595	
O		4.20819375		4.64563170		8.36738952		-0.00004858		 0.00010140		 0.00037463	
O		1.49010480		7.12263186		0.34673071		 0.00004858		-0.00010140		-0.00037463	
O		4.20819375		7.12263186		0.34673071		-0.00004858		-0.00010140		-0.00037463	
O		1.49010480		4.64563170		8.36738952		 0.00004858		 0.00010140		 0.00037463	
O		1.49010480		10.03932137		0.46339770		 0.00014751		 0.00040665		-0.00007595	
O		4.20819375		1.72894162		8.25072140		-0.00014751		-0.00040665		 0.00007595	
O		4.33925464		7.28280935		4.35118175		 0.00014749		-0.00040664		 0.00007595	
O		1.35904504		4.48545363		4.36293791		-0.00014749		 0.00040664		-0.00007595	
O		1.35904504		10.19949943		4.46784988		-0.00004858		 0.00010140		 0.00037465	
O		4.33925464		1.56876413		4.24627092		 0.00004858		-0.00010140		-0.00037465	
O		1.35904504		1.56876413		4.24627092		-0.00004858		-0.00010140		-0.00037465	
O		4.33925464		10.19949943		4.46784988		 0.00004858		 0.00010140		 0.00037465	
O		4.33925464		4.48545363		4.36293791		 0.00014749		 0.00040664		-0.00007595	
O		1.35904504		7.28280935		4.35118175		-0.00014749		-0.00040664		 0.00007595	
