# total energy = -13382.3427058 eV

CRYSTAL
PRIMVEC
		3.05300065		0.36635934		0.00000000
		-1.20922413		2.46079582		0.00000000
		0.00000000		0.00000000		20.12500151
PRIMECORD
   18 1
O		0.00000000		0.00000000		6.26491322		 0.00039961		-0.00003523		 0.00052103
O		0.00000000		0.00000000		13.86008767		-0.00039961		 0.00003523		-0.00052103
O		1.63225916		1.06450504		8.61752534		-0.00047762		-0.00038414		-0.00082656
O		0.21151798		1.76265012		11.50747556		 0.00047762		 0.00038414		 0.00082656
O		1.63225916		1.06450504		1.44497511		 0.00005972		 0.00003017		 0.00027463
O		0.21151798		1.76265012		18.68002609		-0.00005972		-0.00003017		-0.00027463
O		0.21151798		1.76265012		3.79758815		 0.00000437		-0.00066259		-0.00077668
O		1.63225916		1.06450504		16.32741274		-0.00000437		 0.00066259		 0.00077668
H		1.63225916		1.06450504		9.60767553		 0.00017944		 0.00011023		-0.00022444
H		0.21151798		1.76265012		10.51732567		-0.00017944		-0.00011023		 0.00022444
H		1.63225916		1.06450504		0.45482492		 0.00012063		 0.00038584		-0.00019396
H		0.21151798		1.76265012		19.67017597		-0.00012063		-0.00038584		 0.00019396
Mg		0.21151798		1.76265012		7.50461333		 0.00044050		 0.00027686		 0.00028027
Mg		1.63225916		1.06450504		12.62038756		-0.00044050		-0.00027686		-0.00028027
Mg		0.00000000		0.00000000		2.55788804		-0.00026009		 0.00013139		-0.00039418
Mg		0.00000000		0.00000000		17.56711377		 0.00026009		-0.00013139		 0.00039418
Mg		1.63225916		1.06450504		5.03326229		 0.00001547		-0.00023392		-0.00006594
Mg		0.21151798		1.76265012		15.09173768		-0.00001547		 0.00023392		 0.00006594
