# total energy = -24714.0546727 eV	

CRYSTAL	
PRIMVEC	
		9.68100001		0.00000000		0.00000000	
		0.00000000		8.08357692		0.00000000	
		1.61441324		0.00000000		4.94515161	
PRIMCOORD
   40 1	
Si		2.35750744		3.31426615		0.99397538		-0.00026375		 0.00006045		-0.00021682	
Si		8.93790581		4.76930980		3.95117236		 0.00026375		-0.00006045		 0.00021682	
Si		3.29020015		7.35605267		1.47859946		 0.00026375		 0.00006045		 0.00021682	
Si		8.00521310		0.72752231		3.46654828		-0.00026375		-0.00006045		-0.00021682	
Si		8.13069919		3.31426615		1.47859946		 0.00005435		 0.00016422		 0.00017671	
Si		3.16471309		4.76930980		3.46654828		-0.00005435		-0.00016422		-0.00017671	
Si		7.19800744		7.35605267		0.99397538		-0.00005435		 0.00016422		-0.00017671	
Si		4.09740580		0.72752231		3.95117236		 0.00005435		-0.00016422		 0.00017671	
O		4.03384133		3.39510153		0.49451516		-0.00004897		-0.00020041		-0.00003769	
O		7.26157192		4.68847442		4.45063161		 0.00004897		 0.00020041		 0.00003769	
O		1.61386530		7.43688902		1.97805871		 0.00004897		-0.00020041		 0.00003769	
O		9.68154698		0.64668596		2.96708806		-0.00004897		 0.00020041		-0.00003769	
O		8.60171275		2.02089423		0.78627824		 0.00006153		 0.00024385		 0.00001378	
O		2.69369856		6.06268075		4.15886854		-0.00006153		-0.00024385		-0.00001378	
O		6.72699291		6.06268075		1.68629467		-0.00006153		 0.00024385		-0.00001378	
O		4.56842034		2.02089423		3.25885211		 0.00006153		-0.00024385		 0.00001378	
O		2.98584210		3.96095211		4.69788919		-0.00015674		 0.00032418		-0.00024080	
O		8.30957115		4.12262287		0.24725661		 0.00015674		-0.00032418		 0.00024080	
O		4.27627680		8.00273960		2.71983145		 0.00015674		 0.00032418		 0.00024080	
O		7.01913548		0.08083635		2.22531629		-0.00015674		-0.00032418		-0.00024080	
O		9.11677680		3.96095211		2.71983145		-0.00008262		 0.00064177		-0.00001536	
O		2.17863644		4.12262287		2.22531629		 0.00008262		-0.00064177		 0.00001536	
O		7.82634210		8.00273960		4.69788919		 0.00008262		 0.00064177		 0.00001536	
O		3.46907115		0.08083635		0.24725661		-0.00008262		-0.00064177		-0.00001536	
O		1.88649291		2.02089423		1.68629467		-0.00004797		 0.00015093		 0.00015095	
O		9.40892034		6.06268075		3.25885211		 0.00004797		-0.00015093		-0.00015095	
O		3.76121275		6.06268075		0.78627824		 0.00004797		 0.00015093		-0.00015095	
O		7.53419856		2.02089423		4.15886757		-0.00004797		-0.00015093		 0.00015095	
O		6.45436530		3.39510153		1.97805871		-0.00018448		-0.00037705		-0.00018650	
O		4.84104795		4.68847442		2.96708806		 0.00018448		 0.00037705		 0.00018650	
O		8.87434133		7.43688902		0.49451516		 0.00018448		-0.00037705		 0.00018650	
O		2.42107095		0.64668596		4.45063161		-0.00018448		 0.00037705		-0.00018650	
Mg		0.40360283		0.73560498		1.23628694		-0.00031985		 0.00023655		 0.00012253	
Mg		1.21081042		7.34797001		3.70885984		 0.00031985		-0.00023655		-0.00012253	
Mg		5.24410283		4.77739344		1.23628694		 0.00031985		 0.00023655		-0.00012253	
Mg		6.05131042		3.30618155		3.70885984		-0.00031985		-0.00023655		 0.00012253	
Mg		0.32288265		5.57766652		0.98902935		 0.00003953		 0.00069090		-0.00018990	
Mg		1.29152963		2.50590846		3.95611742		-0.00003953		-0.00069090		 0.00018990	
Mg		5.32482398		1.53587903		1.48354355		-0.00003953		 0.00069090		 0.00018990	
Mg		5.97058927		6.54769595		3.46160322		 0.00003953		-0.00069090		-0.00018990	
