# total energy = -22465.7652055 eV

CRYSTAL
PRIMVEC
		9.73970164		0.00000000		1.16876184
		0.00000000		8.91740419		0.00000000
		-0.82934073		0.00000000		4.87803691
PRIMECORD
   40 1
Mg		-0.20733420		8.09771314		1.21950972		 0.00000009		-0.00018373		-0.00000008
Mg		-0.62200260		0.81968811		3.65852916		-0.00000009		 0.00018373		 0.00000008
Mg		4.66251564		3.63901301		1.80389162		 0.00000007		-0.00019708		-0.00000009
Mg		4.24784724		5.27838824		4.24291106		-0.00000007		 0.00019708		 0.00000009
Ca		-0.20733420		2.68841808		1.21950972		-0.00000018		 0.00029507		-0.00000014
Ca		-0.62200260		6.22898317		3.65852916		 0.00000018		-0.00029507		 0.00000014
Ca		4.66251564		7.14711821		1.80389162		-0.00000022		 0.00031582		-0.00000014
Ca		4.24784724		1.77028205		4.24291106		 0.00000022		-0.00031582		 0.00000014
Si		2.59718805		0.83101326		1.45331506		-0.00007812		-0.00009609		-0.00036361
Si		6.31317483		8.08638798		4.59348664		 0.00007812		 0.00009609		 0.00036361
Si		6.72784323		0.83101326		2.15446818		 0.00007493		-0.00009232		 0.00036101
Si		2.18251866		8.08638798		3.89233548		-0.00007493		 0.00009232		-0.00036101
Si		7.46703887		5.28971339		2.03769794		 0.00009163		-0.00000446		-0.00029411
Si		1.44332499		3.62768785		4.00910474		-0.00009163		 0.00000446		 0.00029411
Si		1.85799339		5.28971339		1.57008628		-0.00009455		-0.00000092		 0.00029170
Si		7.05237047		3.62768785		4.47671738		 0.00009455		 0.00000092		-0.00029170
O		1.00767488		0.77492211		0.82703842		-0.00024733		-0.00004347		 0.00020348
O		7.90268799		8.14247815		5.21976524		 0.00024733		 0.00004347		-0.00020348
O		8.31735639		0.77492211		2.78074580		 0.00024928		-0.00004388		-0.00020274
O		0.59300746		8.14247815		3.26605688		-0.00024928		 0.00004388		 0.00020274
O		5.87752571		5.23362224		1.41142032		-0.00033699		-0.00005824		 0.00017820
O		3.03283815		3.68377802		4.63538334		 0.00033699		 0.00005824		-0.00017820
O		3.44750557		5.23362224		2.19636390		 0.00033883		-0.00005861		-0.00017748
O		5.46285730		3.68377802		3.85043878		-0.00033883		 0.00005861		 0.00017748
O		3.25191736		2.23104369		1.97189924		 0.00014219		-0.00018139		 0.00018953
O		5.65844650		6.68635559		4.07490344		-0.00014219		 0.00018139		-0.00018953
O		6.07311490		2.23104369		1.63588401		-0.00014086		-0.00018428		-0.00018837
O		2.83724895		6.68635559		4.41091769		 0.00014086		 0.00018428		 0.00018837
O		8.12176720		6.68974480		2.55628114		 0.00008120		-0.00026737		 0.00015959
O		0.78859568		2.22765644		3.49052056		-0.00008120		 0.00026737		-0.00015959
O		1.20326408		6.68974480		1.05150210		-0.00007995		-0.00027009		-0.00015846
O		7.70709879		2.22765644		4.99529959		 0.00007995		 0.00027009		 0.00015846
O		2.59045770		0.15551904		5.26566620		 0.00026684		-0.00016395		 0.00011662
O		6.31990518		8.76188122		0.78113648		-0.00026684		 0.00016395		-0.00011662
O		5.90523677		0.15551904		3.22015493		-0.00026702		-0.00016468		-0.00011595
O		3.00512708		8.76188122		2.82664677		 0.00026702		 0.00016468		 0.00011595
O		7.46030852		4.61422016		5.85004810		 0.00024665		-0.00017313		 0.00010783
O		1.45005534		4.30318109		0.19675359		-0.00024665		 0.00017313		-0.00010783
O		1.03538595		4.61422016		2.63577303		-0.00024688		-0.00017384		-0.00010718
O		7.87497692		4.30318109		3.41102867		 0.00024688		 0.00017384		 0.00010718
