# total energy = -22459.7027426 eV

CRYSTAL
PRIMVEC
		9.73970320		0.00000000		-1.55835685
		0.00000000		8.91739627		0.00000000
		-2.24341207		0.00000000		5.27994473
PRIMECORD
   40 1
Mg		-0.56085400		8.09771305		1.31998569		 0.00000039		-0.00044102		-0.00000037
Mg		-1.68256201		0.81968815		3.95995707		-0.00000039		 0.00044102		 0.00000037
Mg		4.30899562		3.63901295		0.54081022		 0.00000012		-0.00039030		-0.00000026
Mg		3.18728762		5.27838826		3.18078061		-0.00000012		 0.00039030		 0.00000026
Ca		-0.56085400		2.68841832		1.31998569		-0.00000006		 0.00082307		-0.00000108
Ca		-1.68256201		6.22898288		3.95995707		 0.00000006		-0.00082307		 0.00000108
Ca		4.30899562		7.14711744		0.54081022		-0.00000014		 0.00075088		-0.00000142
Ca		3.18728762		1.77028178		3.18078061		 0.00000014		-0.00075088		 0.00000142
Si		2.27285485		0.83101252		0.76502320		 0.00013204		 0.00035648		 0.00020504
Si		5.22342839		8.08638769		2.95656763		-0.00013204		-0.00035648		-0.00020504
Si		6.34513639		0.83101252		0.31659626		-0.00015397		 0.00036972		-0.00020932
Si		1.15114685		8.08638769		3.40499359		 0.00015397		-0.00036972		 0.00020932
Si		7.14270448		5.28971263		-0.01415325		 0.00018797		-0.00001506		 0.00019310
Si		0.35357876		3.62768758		3.73574409		-0.00018797		 0.00001506		-0.00019310
Si		1.47528677		5.28971263		1.09577172		-0.00019832		-0.00000742		-0.00019498
Si		6.02099647		3.62768758		2.62581813		 0.00019832		 0.00000742		 0.00019498
O		0.80707362		0.77492229		0.56896088		 0.00037233		-0.00008944		 0.00027668
O		6.68920962		8.14247792		3.15262996		-0.00037233		 0.00008944		-0.00027668
O		7.81091763		0.77492229		0.51265858		-0.00035542		-0.00009101		-0.00027101
O		-0.31463439		8.14247792		3.20893226		 0.00035542		 0.00009101		 0.00027101
O		5.67692423		5.23362141		-0.21021459		 0.00023143		-0.00007223		 0.00023122
O		1.81936000		3.68377782		3.93180542		-0.00023143		 0.00007223		-0.00023122
O		2.94106800		5.23362141		1.29183503		-0.00022340		-0.00007326		-0.00022853
O		4.55521622		3.68377782		2.42975580		 0.00022340		 0.00007326		 0.00022853
O		2.80257940		2.23104412		1.11528287		 0.00074403		-0.00028754		 0.00049353
O		4.69370483		6.68635609		2.60630698		-0.00074403		 0.00028754		-0.00049353
O		5.81541284		2.23104412		-0.03366440		-0.00073848		-0.00029987		-0.00049334
O		1.68087139		6.68635609		3.75525425		 0.00073848		 0.00029987		 0.00049334
O		7.67242902		6.68974423		0.33610740		 0.00087075		 0.00003980		 0.00049886
O		-0.17614578		2.22765598		3.38548343		-0.00087075		-0.00003980		-0.00049886
O		0.94556222		6.68974423		0.74551205		-0.00086788		 0.00003289		-0.00049871
O		6.55072102		2.22765598		2.97607779		 0.00086788		-0.00003289		 0.00049871
O		1.18284050		0.15551906		4.70925180		 0.00033696		 0.00013713		 0.00028840
O		6.31344274		8.76188016		-0.98766196		-0.00033696		-0.00013713		-0.00028840
O		5.19173473		0.15551906		1.65230844		-0.00033681		 0.00013658		-0.00028798
O		2.30454851		8.76188016		2.06928043		 0.00033681		-0.00013658		 0.00028798
O		6.05269111		4.61422016		3.93007535		 0.00029339		 0.00016251		 0.00031660
O		1.44359311		4.30318104		-0.20848550		-0.00029339		-0.00016251		-0.00031660
O		0.32188412		4.61422016		2.43148489		-0.00029348		 0.00016166		-0.00031611
O		7.17439912		4.30318104		1.29010496		 0.00029348		-0.00016166		 0.00031611
