# total energy = -22468.0727986 eV

CRYSTAL
PRIMVEC
		9.73969720		0.00000000		0.77917382
		0.00000000		8.91740476		0.00000000
		-1.03134884		0.00000000		4.93545475
PRIMECORD
   40 1
Mg		-0.25783721		8.09771331		1.23386271		 0.00000003		-0.00085322		-0.00000000
Mg		-0.77351066		0.81968754		3.70159009		-0.00000003		 0.00085322		0.00000000
Mg		4.61201334		3.63901289		1.62345060		-0.00000002		-0.00083464		 0.00000009
Mg		4.09633892		5.27838796		4.09117797		 0.00000002		 0.00083464		-0.00000009
Ca		-0.25783721		2.68841789		1.23386271		 0.00000011		 0.00072014		 0.00000005
Ca		-0.77351066		6.22898296		3.70159009		-0.00000011		-0.00072014		-0.00000005
Ca		4.61201334		7.14711832		1.62345060		-0.00000002		 0.00069395		 0.00000005
Ca		4.09633892		1.77028156		4.09117797		 0.00000002		-0.00069395		-0.00000005
Si		2.55085456		0.83101289		1.35498762		 0.00045707		 0.00043256		 0.00016257
Si		6.15749673		8.08638796		4.35964095		-0.00045707		-0.00043256		-0.00016257
Si		6.67317115		0.83101289		1.89191455		-0.00045760		 0.00043292		-0.00016293
Si		2.03518111		8.08638796		3.82271500		 0.00045760		-0.00043292		 0.00016293
Si		7.42070511		5.28971332		1.74457551		 0.00017073		 0.00029254		 0.00004242
Si		1.28764715		3.62768753		3.97005306		-0.00017073		-0.00029254		-0.00004242
Si		1.80332060		5.28971332		1.50232666		-0.00016932		 0.00029138		-0.00004153
Si		6.90503069		3.62768753		4.21230289		 0.00016932		-0.00029138		 0.00004153
O		0.97901830		0.77492156		0.79016892		 0.00065179		-0.00052482		 0.00008131
O		7.72933396		8.14247831		4.92445965		-0.00065179		 0.00052482		-0.00008131
O		8.24500838		0.77492156		2.45673325		-0.00065159		-0.00052481		-0.00008115
O		0.46334388		8.14247831		3.25789630		 0.00065159		 0.00052481		 0.00008115
O		5.84886788		5.23362199		1.17975681		 0.00082215		-0.00050206		 0.00013245
O		2.85948439		3.68377789		4.53487176		-0.00082215		 0.00050206		-0.00013245
O		3.37515783		5.23362199		2.06714536		-0.00082299		-0.00050207		-0.00013285
O		5.33319443		3.68377789		3.64748419		 0.00082299		 0.00050207		 0.00013285
O		3.18772620		2.23104398		1.84952484		 0.00069090		 0.00053588		-0.00081056
O		5.52062607		6.68635589		3.86510374		-0.00069090		-0.00053588		 0.00081056
O		6.03629951		2.23104398		1.39737734		-0.00069063		 0.00053548		 0.00081080
O		2.67205178		6.68635589		4.31725221		 0.00069063		-0.00053548		-0.00081080
O		8.05757577		6.68974539		2.23911273		 0.00078833		 0.00067601		-0.00075921
O		0.65077454		2.22765644		3.47551585		-0.00078833		-0.00067601		 0.00075921
O		1.16644993		6.68974539		1.00778945		-0.00078881		 0.00067706		 0.00075897
O		7.54190233		2.22765644		4.70684010		 0.00078881		-0.00067706		-0.00075897
O		2.38937031		0.15551917		5.18617881		-0.00051668		 0.00004533		-0.00030373
O		6.31898196		8.76188071		0.52845074		 0.00051668		-0.00004533		 0.00030373
O		5.80330753		0.15551917		2.99617714		 0.00051660		 0.00004534		 0.00030350
O		2.90504375		8.76188071		2.71845241		-0.00051660		-0.00004534		-0.00030350
O		7.25921988		4.61421959		5.57576670		-0.00047271		 0.00005978		-0.00028885
O		1.44913238		4.30318126		0.13886285		 0.00047271		-0.00005978		 0.00028885
O		0.93345796		4.61421959		2.60658925		 0.00047254		 0.00005988		 0.00028867
O		7.77489431		4.30318126		3.10804030		-0.00047254		-0.00005988		-0.00028867
