# total energy = -49447.2794106 eV	

CRYSTAL	
PRIMVEC	
		5.08939982		0.00000000		0.00000000	
		0.00000000		13.96800031		0.00000000	
		0.00000000		0.00000000		8.47820723	
PRIMCOORD
   70 1	
Si		2.54469991		0.00000000		0.00000000		0.00000000		0.00000000		0.00000000	
Si		0.00000000		6.98399965		4.23910463		0.00000000		0.00000000		0.00000000	
Si		2.47349870		5.25923157		0.00000000		-0.00039932		 0.00013279		-0.00000000	
Si		2.61590112		8.70876773		0.00000000		 0.00039932		-0.00013279		0.00000000	
Si		0.07120121		12.24323172		4.23910463		 0.00039932		 0.00013279		-0.00000000	
Si		5.01819861		1.72476910		4.23910463		-0.00039932		-0.00013279		0.00000000	
Mg		0.86219522		2.42358797		0.00000000		 0.00019040		 0.00025936		0.00000000	
Mg		4.22720460		11.54441183		0.00000000		-0.00019040		-0.00025936		0.00000000	
Mg		1.68250469		9.40758762		4.23910463		-0.00019040		 0.00025936		0.00000000	
Mg		3.40689513		4.56041168		4.23910463		 0.00019040		-0.00025936		0.00000000	
Mg		0.80570289		4.51808975		2.74524415		-0.00003864		 0.00011967		 0.00029868	
Mg		4.28369694		9.44991056		5.73296563		 0.00003864		-0.00011967		-0.00029868	
Mg		4.28369694		9.44991056		2.74524415		 0.00003864		-0.00011967		 0.00029868	
Mg		0.80570289		4.51808975		5.73296563		-0.00003864		 0.00011967		-0.00029868	
Mg		1.73899703		11.50208838		1.49386099		 0.00003864		 0.00011967		-0.00029868	
Mg		3.35040280		2.46591091		6.98434878		-0.00003864		-0.00011967		 0.00029868	
Mg		3.35040280		2.46591091		1.49386099		-0.00003864		-0.00011967		-0.00029868	
Mg		1.73899703		11.50208838		6.98434878		 0.00003864		 0.00011967		 0.00029868	
Mg		2.54469991		6.98399965		2.72379385		0.00000000		0.00000000		-0.00032599	
Mg		2.54469991		6.98399965		5.75441490		0.00000000		0.00000000		 0.00032599	
Mg		0.00000000		0.00000000		1.51530976		0.00000000		0.00000000		 0.00032599	
Mg		0.00000000		0.00000000		6.96289900		0.00000000		0.00000000		-0.00032599	
Mg		2.54469991		0.00000000		2.89861474		0.00000000		0.00000000		 0.00048300	
Mg		2.54469991		0.00000000		5.57959504		0.00000000		0.00000000		-0.00048300	
Mg		0.00000000		6.98399965		1.34048989		0.00000000		0.00000000		-0.00048300	
Mg		0.00000000		6.98399965		7.13771988		0.00000000		0.00000000		 0.00048300	
O		1.69075002		5.77129797		1.32361802		-0.00038012		 0.00021191		-0.00018539	
O		3.39864980		8.19670184		7.15459073		 0.00038012		-0.00021191		 0.00018539	
O		3.39864980		8.19670184		1.32361802		 0.00038012		-0.00021191		-0.00018539	
O		1.69075002		5.77129797		7.15459073		-0.00038012		 0.00021191		 0.00018539	
O		0.85394989		12.75529863		2.91548712		 0.00038012		 0.00021191		 0.00018539	
O		4.23544892		1.21270219		5.56272266		-0.00038012		-0.00021191		-0.00018539	
O		4.23544892		1.21270219		2.91548712		-0.00038012		-0.00021191		 0.00018539	
O		0.85394989		12.75529863		5.56272266		 0.00038012		 0.00021191		-0.00018539	
O		2.50953216		3.62092475		0.00000000		 0.00007423		 0.00012243		-0.00000000	
O		2.57986715		10.34707454		0.00000000		-0.00007423		-0.00012243		0.00000000	
O		0.03516775		10.60492440		4.23910463		-0.00007423		 0.00012243		0.00000000	
O		5.05423207		3.36307591		4.23910463		 0.00007423		-0.00012243		0.00000000	
O		4.02780191		5.78973585		0.00000000		-0.00053852		 0.00006495		0.00000000	
O		1.06159791		8.17826396		0.00000000		 0.00053852		-0.00006495		0.00000000	
O		3.60629782		12.77373549		4.23910463		 0.00053852		 0.00006495		0.00000000	
O		1.48310200		1.19426380		4.23910463		-0.00053852		-0.00006495		0.00000000	
O		1.81386210		1.02064198		1.22628783		-0.00003543		-0.00009189		-0.00008019	
O		3.27553773		12.94735833		7.25192194		 0.00003543		 0.00009189		 0.00008019	
O		3.27553773		12.94735833		1.22628783		 0.00003543		 0.00009189		-0.00008019	
O		1.81386210		1.02064198		7.25192194		-0.00003543		-0.00009189		 0.00008019	
O		0.73083781		8.00464163		3.01281680		 0.00003543		-0.00009189		 0.00008019	
O		4.35856201		5.96335868		5.46539297		-0.00003543		 0.00009189		-0.00008019	
O		4.35856201		5.96335868		3.01281680		-0.00003543		 0.00009189		 0.00008019	
O		0.73083781		8.00464163		5.46539297		 0.00003543		-0.00009189		-0.00008019	
O		5.00058979		3.51784100		1.34973072		 0.00011218		 0.00003252		 0.00019227	
O		0.08881003		10.45015881		7.12847753		-0.00011218		-0.00003252		-0.00019227	
O		0.08881003		10.45015881		1.34973072		-0.00011218		-0.00003252		 0.00019227	
O		5.00058979		3.51784100		7.12847753		 0.00011218		 0.00003252		-0.00019227	
O		2.63350994		10.50184065		2.88937392		-0.00011218		 0.00003252		-0.00019227	
O		2.45588988		3.46615865		5.58883586		 0.00011218		-0.00003252		 0.00019227	
O		2.45588988		3.46615865		2.88937392		 0.00011218		-0.00003252		-0.00019227	
O		2.63350994		10.50184065		5.58883586		-0.00011218		 0.00003252		 0.00019227	
O		0.99589376		12.86159431		0.00000000		 0.00037133		 0.00090661		0.00000000	
O		4.09350606		1.10640498		0.00000000		-0.00037133		-0.00090661		0.00000000	
O		1.54880615		5.87759466		4.23910463		-0.00037133		 0.00090661		0.00000000	
O		3.54059367		8.09040463		4.23910463		 0.00037133		-0.00090661		0.00000000	
H		4.69802498		4.22671703		0.91988612		-0.00004889		 0.00053869		 0.00028610	
H		0.39137485		9.74128277		7.55832366		 0.00004889		-0.00053869		-0.00028610	
H		0.39137485		9.74128277		0.91988612		 0.00004889		-0.00053869		 0.00028610	
H		4.69802498		4.22671703		7.55832366		-0.00004889		 0.00053869		-0.00028610	
H		2.93607476		11.21071668		3.31921903		 0.00004889		 0.00053869		-0.00028610	
H		2.15332506		2.75728312		5.15899075		-0.00004889		-0.00053869		 0.00028610	
H		2.15332506		2.75728312		3.31921903		-0.00004889		-0.00053869		-0.00028610	
H		2.93607476		11.21071668		5.15899075		 0.00004889		 0.00053869		 0.00028610	
