# total energy = -49445.0674579 eV	

CRYSTAL	
PRIMVEC	
		5.08939982		0.00000000		0.00000000	
		0.00000000		13.96800031		0.00000000	
		0.00000000		0.00000000		9.56516053	
PRIMCOORD
   70 1	
Si		2.54469991		0.00000000		0.00000000		0.00000000		0.00000000		0.00000000	
Si		0.00000000		6.98399965		4.78257976		0.00000000		0.00000000		0.00000000	
Si		2.47349870		5.25923157		0.00000000		 0.00040040		-0.00035229		-0.00000000	
Si		2.61590112		8.70876773		0.00000000		-0.00040040		 0.00035229		-0.00000000	
Si		0.07120121		12.24323172		4.78257976		-0.00040040		-0.00035229		0.00000000	
Si		5.01819861		1.72476910		4.78257976		 0.00040040		 0.00035229		0.00000000	
Mg		0.86219522		2.42358797		0.00000000		 0.00019436		 0.00062327		0.00000000	
Mg		4.22720460		11.54441183		0.00000000		-0.00019436		-0.00062327		0.00000000	
Mg		1.68250469		9.40758762		4.78257976		-0.00019436		 0.00062327		0.00000000	
Mg		3.40689513		4.56041168		4.78257976		 0.00019436		-0.00062327		0.00000000	
Mg		0.80570289		4.51808975		3.09719905		-0.00042043		 0.00047818		-0.00038806	
Mg		4.28369694		9.44991056		6.46796097		 0.00042043		-0.00047818		 0.00038806	
Mg		4.28369694		9.44991056		3.09719905		 0.00042043		-0.00047818		-0.00038806	
Mg		0.80570289		4.51808975		6.46796097		-0.00042043		 0.00047818		 0.00038806	
Mg		1.73899703		11.50208838		1.68538071		 0.00042043		 0.00047818		 0.00038806	
Mg		3.35040280		2.46591091		7.87977779		-0.00042043		-0.00047818		-0.00038806	
Mg		3.35040280		2.46591091		1.68538071		-0.00042043		-0.00047818		 0.00038806	
Mg		1.73899703		11.50208838		7.87977779		 0.00042043		 0.00047818		-0.00038806	
Mg		2.54469991		6.98399965		3.07299895		0.00000000		0.00000000		 0.00086497	
Mg		2.54469991		6.98399965		6.49216056		0.00000000		0.00000000		-0.00086497	
Mg		0.00000000		0.00000000		1.70958080		0.00000000		0.00000000		-0.00086497	
Mg		0.00000000		0.00000000		7.85557769		0.00000000		0.00000000		 0.00086497	
Mg		2.54469991		0.00000000		3.27023203		0.00000000		0.00000000		-0.00018079	
Mg		2.54469991		0.00000000		6.29492698		0.00000000		0.00000000		 0.00018079	
Mg		0.00000000		6.98399965		1.51234671		0.00000000		0.00000000		 0.00018079	
Mg		0.00000000		6.98399965		8.05281178		0.00000000		0.00000000		-0.00018079	
O		1.69075002		5.77129797		1.49331286		-0.00013884		 0.00009486		-0.00019076	
O		3.39864980		8.19670184		8.07184665		 0.00013884		-0.00009486		 0.00019076	
O		3.39864980		8.19670184		1.49331286		 0.00013884		-0.00009486		-0.00019076	
O		1.69075002		5.77129797		8.07184665		-0.00013884		 0.00009486		 0.00019076	
O		0.85394989		12.75529863		3.28926689		 0.00013884		 0.00009486		 0.00019076	
O		4.23544892		1.21270219		6.27589160		-0.00013884		-0.00009486		-0.00019076	
O		4.23544892		1.21270219		3.28926689		-0.00013884		-0.00009486		 0.00019076	
O		0.85394989		12.75529863		6.27589160		 0.00013884		 0.00009486		-0.00019076	
O		2.50953216		3.62092475		0.00000000		-0.00062590		-0.00028875		-0.00000000	
O		2.57986715		10.34707454		0.00000000		 0.00062590		 0.00028875		-0.00000000	
O		0.03516775		10.60492440		4.78257976		 0.00062590		-0.00028875		0.00000000	
O		5.05423207		3.36307591		4.78257976		-0.00062590		 0.00028875		0.00000000	
O		4.02780191		5.78973585		0.00000000		 0.00029051		-0.00011439		0.00000000	
O		1.06159791		8.17826396		0.00000000		-0.00029051		 0.00011439		0.00000000	
O		3.60629782		12.77373549		4.78257976		-0.00029051		-0.00011439		0.00000000	
O		1.48310200		1.19426380		4.78257976		 0.00029051		 0.00011439		0.00000000	
O		1.81386210		1.02064198		1.38350499		-0.00012554		 0.00054822		-0.00087021	
O		3.27553773		12.94735833		8.18165452		 0.00012554		-0.00054822		 0.00087021	
O		3.27553773		12.94735833		1.38350499		 0.00012554		-0.00054822		-0.00087021	
O		1.81386210		1.02064198		8.18165452		-0.00012554		 0.00054822		 0.00087021	
O		0.73083781		8.00464163		3.39907476		 0.00012554		 0.00054822		 0.00087021	
O		4.35856201		5.96335868		6.16608373		-0.00012554		-0.00054822		-0.00087021	
O		4.35856201		5.96335868		3.39907476		-0.00012554		-0.00054822		 0.00087021	
O		0.73083781		8.00464163		6.16608373		 0.00012554		 0.00054822		-0.00087021	
O		5.00058979		3.51784100		1.52277286		 0.00009687		-0.00050767		 0.00001736	
O		0.08881003		10.45015881		8.04238564		-0.00009687		 0.00050767		-0.00001736	
O		0.08881003		10.45015881		1.52277286		-0.00009687		 0.00050767		 0.00001736	
O		5.00058979		3.51784100		8.04238564		 0.00009687		-0.00050767		-0.00001736	
O		2.63350994		10.50184065		3.25980588		-0.00009687		-0.00050767		-0.00001736	
O		2.45588988		3.46615865		6.30535261		 0.00009687		 0.00050767		 0.00001736	
O		2.45588988		3.46615865		3.25980588		 0.00009687		 0.00050767		-0.00001736	
O		2.63350994		10.50184065		6.30535261		-0.00009687		-0.00050767		 0.00001736	
O		0.99589376		12.86159431		0.00000000		-0.00072358		-0.00010899		-0.00000000	
O		4.09350606		1.10640498		0.00000000		 0.00072358		 0.00010899		-0.00000000	
O		1.54880615		5.87759466		4.78257976		 0.00072358		-0.00010899		0.00000000	
O		3.54059367		8.09040463		4.78257976		-0.00072358		 0.00010899		-0.00000000	
H		4.69802498		4.22671703		1.03781972		-0.00048258		 0.00023126		-0.00059610	
H		0.39137485		9.74128277		8.52733979		 0.00048258		-0.00023126		 0.00059610	
H		0.39137485		9.74128277		1.03781972		 0.00048258		-0.00023126		-0.00059610	
H		4.69802498		4.22671703		8.52733979		-0.00048258		 0.00023126		 0.00059610	
H		2.93607476		11.21071668		3.74476003		 0.00048258		 0.00023126		 0.00059610	
H		2.15332506		2.75728312		5.82039999		-0.00048258		-0.00023126		-0.00059610	
H		2.15332506		2.75728312		3.74476003		-0.00048258		-0.00023126		 0.00059610	
H		2.93607476		11.21071668		5.82039999		 0.00048258		 0.00023126		-0.00059610	
