# total energy = -49439.5651401 eV	

CRYSTAL	
PRIMVEC	
		5.08939982		0.00000000		0.00000000	
		0.00000000		13.96800031		0.00000000	
		0.00000000		0.00000000		7.82604136	
PRIMCOORD
   70 1	
Si		2.54469991		0.00000000		0.00000000		0.00000000		0.00000000		0.00000000	
Si		0.00000000		6.98399965		3.91301966		0.00000000		0.00000000		0.00000000	
Si		2.47349870		5.25923157		0.00000000		-0.00010998		-0.00000362		0.00000000	
Si		2.61590112		8.70876773		0.00000000		 0.00010998		 0.00000362		0.00000000	
Si		0.07120121		12.24323172		3.91301966		 0.00010998		-0.00000362		0.00000000	
Si		5.01819861		1.72476910		3.91301966		-0.00010998		 0.00000362		0.00000000	
Mg		0.86219522		2.42358797		0.00000000		 0.00040566		 0.00045315		-0.00000000	
Mg		4.22720460		11.54441183		0.00000000		-0.00040566		-0.00045315		0.00000000	
Mg		1.68250469		9.40758762		3.91301966		-0.00040566		 0.00045315		0.00000000	
Mg		3.40689513		4.56041168		3.91301966		 0.00040566		-0.00045315		-0.00000000	
Mg		0.80570289		4.51808975		2.53407172		-0.00002586		-0.00002353		 0.00013455	
Mg		4.28369694		9.44991056		5.29196760		 0.00002586		 0.00002353		-0.00013455	
Mg		4.28369694		9.44991056		2.53407172		 0.00002586		 0.00002353		 0.00013455	
Mg		0.80570289		4.51808975		5.29196760		-0.00002586		-0.00002353		-0.00013455	
Mg		1.73899703		11.50208838		1.37894794		 0.00002586		-0.00002353		-0.00013455	
Mg		3.35040280		2.46591091		6.44709087		-0.00002586		 0.00002353		 0.00013455	
Mg		3.35040280		2.46591091		1.37894794		-0.00002586		 0.00002353		-0.00013455	
Mg		1.73899703		11.50208838		6.44709087		 0.00002586		-0.00002353		 0.00013455	
Mg		2.54469991		6.98399965		2.51427192		0.00000000		0.00000000		-0.00067539	
Mg		2.54469991		6.98399965		5.31176791		0.00000000		0.00000000		 0.00067539	
Mg		0.00000000		0.00000000		1.39874774		0.00000000		0.00000000		 0.00067539	
Mg		0.00000000		0.00000000		6.42729056		0.00000000		0.00000000		-0.00067539	
Mg		2.54469991		0.00000000		2.67564508		0.00000000		0.00000000		 0.00020340	
Mg		2.54469991		0.00000000		5.15039475		0.00000000		0.00000000		-0.00020340	
Mg		0.00000000		6.98399965		1.23737509		0.00000000		0.00000000		-0.00020340	
Mg		0.00000000		6.98399965		6.58866372		0.00000000		0.00000000		 0.00020340	
O		1.69075002		5.77129797		1.22180102		-0.00073515		 0.00028153		 0.00003182	
O		3.39864980		8.19670184		6.60423779		 0.00073515		-0.00028153		-0.00003182	
O		3.39864980		8.19670184		1.22180102		 0.00073515		-0.00028153		 0.00003182	
O		1.69075002		5.77129797		6.60423779		-0.00073515		 0.00028153		-0.00003182	
O		0.85394989		12.75529863		2.69121813		 0.00073515		 0.00028153		-0.00003182	
O		4.23544892		1.21270219		5.13482068		-0.00073515		-0.00028153		 0.00003182	
O		4.23544892		1.21270219		2.69121813		-0.00073515		-0.00028153		-0.00003182	
O		0.85394989		12.75529863		5.13482068		 0.00073515		 0.00028153		 0.00003182	
O		2.50953216		3.62092475		0.00000000		-0.00072806		 0.00044469		-0.00000000	
O		2.57986715		10.34707454		0.00000000		 0.00072806		-0.00044469		-0.00000000	
O		0.03516775		10.60492440		3.91301966		 0.00072806		 0.00044469		0.00000000	
O		5.05423207		3.36307591		3.91301966		-0.00072806		-0.00044469		0.00000000	
O		4.02780191		5.78973585		0.00000000		-0.00078363		 0.00075231		0.00000000	
O		1.06159791		8.17826396		0.00000000		 0.00078363		-0.00075231		0.00000000	
O		3.60629782		12.77373549		3.91301966		 0.00078363		 0.00075231		-0.00000000	
O		1.48310200		1.19426380		3.91301966		-0.00078363		-0.00075231		-0.00000000	
O		1.81386210		1.02064198		1.13195784		 0.00018729		-0.00027735		 0.00018347	
O		3.27553773		12.94735833		6.69408097		-0.00018729		 0.00027735		-0.00018347	
O		3.27553773		12.94735833		1.13195784		-0.00018729		 0.00027735		 0.00018347	
O		1.81386210		1.02064198		6.69408097		 0.00018729		-0.00027735		-0.00018347	
O		0.73083781		8.00464163		2.78106080		-0.00018729		-0.00027735		-0.00018347	
O		4.35856201		5.96335868		5.04497801		 0.00018729		 0.00027735		 0.00018347	
O		4.35856201		5.96335868		2.78106080		 0.00018729		 0.00027735		-0.00018347	
O		0.73083781		8.00464163		5.04497801		-0.00018729		-0.00027735		 0.00018347	
O		5.00058979		3.51784100		1.24590493		-0.00029739		-0.00007478		 0.00048600	
O		0.08881003		10.45015881		6.58013389		 0.00029739		 0.00007478		-0.00048600	
O		0.08881003		10.45015881		1.24590493		 0.00029739		 0.00007478		 0.00048600	
O		5.00058979		3.51784100		6.58013389		-0.00029739		-0.00007478		-0.00048600	
O		2.63350994		10.50184065		2.66711372		 0.00029739		-0.00007478		-0.00048600	
O		2.45588988		3.46615865		5.15892459		-0.00029739		 0.00007478		 0.00048600	
O		2.45588988		3.46615865		2.66711372		-0.00029739		 0.00007478		-0.00048600	
O		2.63350994		10.50184065		5.15892459		 0.00029739		-0.00007478		 0.00048600	
O		0.99589376		12.86159431		0.00000000		 0.00038643		 0.00083166		0.00000000	
O		4.09350606		1.10640498		0.00000000		-0.00038643		-0.00083166		0.00000000	
O		1.54880615		5.87759466		3.91301966		-0.00038643		 0.00083166		0.00000000	
O		3.54059367		8.09040463		3.91301966		 0.00038643		-0.00083166		0.00000000	
H		4.69802498		4.22671703		0.84912514		-0.00036465		 0.00072220		 0.00005527	
H		0.39137485		9.74128277		6.97691368		 0.00036465		-0.00072220		-0.00005527	
H		0.39137485		9.74128277		0.84912514		 0.00036465		-0.00072220		 0.00005527	
H		4.69802498		4.22671703		6.97691368		-0.00036465		 0.00072220		-0.00005527	
H		2.93607476		11.21071668		3.06389402		 0.00036465		 0.00072220		-0.00005527	
H		2.15332506		2.75728312		4.76214480		-0.00036465		-0.00072220		 0.00005527	
H		2.15332506		2.75728312		3.06389402		-0.00036465		-0.00072220		-0.00005527	
H		2.93607476		11.21071668		4.76214480		 0.00036465		 0.00072220		 0.00005527	
