# total energy = -12327.2905043 eV	

CRYSTAL	
PRIMVEC	
		2.46200063		0.00000000		-0.39392120	
		0.00000000		8.05299832		0.00000000	
		-0.97727942		0.00000000		6.10799885	
PRIMCOORD
   20 1	
O		-0.24431985		0.58786888		1.52699984		-0.00004489		-0.00085871		 0.00006874	
O		-0.73295981		7.46513020		4.58099951		 0.00004489		 0.00085871		-0.00006874	
O		0.98667996		4.61436854		1.33003974		-0.00004494		-0.00085866		 0.00006844	
O		0.49804000		3.43863054		4.38403941		 0.00004494		 0.00085866		-0.00006844	
O		-0.43098007		2.92323856		2.69362777		 0.00037896		 0.00005919		 0.00022619	
O		-0.54629984		5.12976051		3.41437159		-0.00037896		-0.00005919		-0.00022619	
O		-0.91961978		5.12976051		5.74762744		 0.00032884		-0.00000391		 0.00023707	
O		-0.05765988		2.92323856		0.36037191		-0.00032884		 0.00000391		-0.00023707	
O		0.80001899		6.94973922		2.49666767		 0.00037915		 0.00005945		 0.00022638	
O		0.68469997		1.10326085		3.21741174		-0.00037915		-0.00005945		-0.00022638	
O		0.31138003		1.10326085		5.55066734		 0.00032877		-0.00000384		 0.00023699	
O		1.17333993		6.94973922		0.16341206		-0.00032877		 0.00000384		-0.00023699	
Si		0.00000000		0.00000000		0.00000000		0.00000000		0.00000000		0.00000000	
Si		-0.48863996		0.00000000		3.05399968		0.00000000		0.00000000		0.00000000	
Si		1.23099981		4.02649941		-0.19696010		0.00000000		0.00000000		0.00000000	
Si		0.74235986		4.02649941		2.85703958		0.00000000		0.00000000		0.00000000	
Mg		-0.73295981		2.03740867		4.58099951		 0.00010179		 0.00074166		-0.00003687	
Mg		-0.24431985		6.01559040		1.52699984		-0.00010179		-0.00074166		 0.00003687	
Mg		0.49804000		6.06390933		4.38403941		 0.00010168		 0.00074151		-0.00003696	
Mg		0.98667996		1.98909074		1.33003974		-0.00010168		-0.00074151		 0.00003696	
