# total energy = -12327.2905043 eV	

CRYSTAL	
PRIMVEC	
		2.46200063		0.00000000		0.39392120	
		0.00000000		8.05299832		0.00000000	
		0.97727942		0.00000000		6.10799885	
PRIMCOORD
   20 1	
O		0.24431985		0.58786888		1.52699984		 0.00004474		-0.00085845		 0.00006913	
O		0.73295981		7.46513020		4.58099951		-0.00004474		 0.00085845		-0.00006913	
O		1.47531992		4.61436854		1.72395969		 0.00004481		-0.00085876		 0.00006877	
O		1.96395988		3.43863054		4.77795937		-0.00004481		 0.00085876		-0.00006877	
O		0.43098007		2.92323856		2.69362777		-0.00037937		 0.00005989		 0.00022666	
O		0.54629984		5.12976051		3.41437159		 0.00037937		-0.00005989		-0.00022666	
O		0.91961978		5.12976051		5.74762744		-0.00032897		-0.00000425		 0.00023723	
O		0.05765988		2.92323856		0.36037191		 0.00032897		 0.00000425		-0.00023723	
O		1.66197989		6.94973922		2.89058762		-0.00037915		 0.00005927		 0.00022637	
O		1.77729891		1.10326085		3.61133169		 0.00037915		-0.00005927		-0.00022637	
O		2.15061985		1.10326085		5.94458729		-0.00032851		-0.00000323		 0.00023660	
O		1.28865895		6.94973922		0.55733201		 0.00032851		 0.00000323		-0.00023660	
Si		0.00000000		0.00000000		0.00000000		0.00000000		0.00000000		0.00000000	
Si		0.48863996		0.00000000		3.05399968		0.00000000		0.00000000		0.00000000	
Si		1.23099981		4.02649941		0.19696010		0.00000000		0.00000000		0.00000000	
Si		1.71963977		4.02649941		3.25095953		0.00000000		0.00000000		0.00000000	
Mg		0.73295981		2.03740867		4.58099951		-0.00010196		 0.00074107		-0.00003668	
Mg		0.24431985		6.01559040		1.52699984		 0.00010196		-0.00074107		 0.00003668	
Mg		1.96395988		6.06390933		4.77795937		-0.00010182		 0.00074226		-0.00003681	
Mg		1.47531992		1.98909074		1.72395969		 0.00010182		-0.00074226		 0.00003681	
