# total energy = -12333.2456518 eV	

CRYSTAL	
PRIMVEC	
		2.46200034		0.00000000		-0.29543945	
		0.00000000		8.05300059		0.00000000	
		-0.73296110		0.00000000		6.10800007	
PRIMCOORD
   20 1	
O		-0.18323990		0.58786908		1.52700002		-0.00002319		-0.00079769		 0.00002607	
O		-0.54971996		7.46513077		4.58099980		 0.00002319		 0.00079769		-0.00002607	
O		1.04776002		4.61436887		1.37928005		-0.00002326		-0.00079773		 0.00002564	
O		0.68127996		3.43863097		4.43327983		 0.00002326		 0.00079773		-0.00002564	
O		-0.32323498		2.92323897		2.69362789		-0.00006196		-0.00057433		-0.00005723	
O		-0.40972488		5.12976087		3.41437193		 0.00006196		 0.00057433		 0.00005723	
O		-0.68971503		5.12976087		5.74762792		-0.00007093		 0.00059257		-0.00004793	
O		-0.04324507		2.92323897		0.36037190		 0.00007093		-0.00059257		 0.00004793	
O		0.90776494		6.94973976		2.54590791		-0.00006191		-0.00057419		-0.00005703	
O		0.82127504		1.10326107		3.26665196		 0.00006191		 0.00057419		 0.00005703	
O		0.54128489		1.10326107		5.59990795		-0.00007102		 0.00059274		-0.00004819	
O		1.18775485		6.94973976		0.21265193		 0.00007102		-0.00059274		 0.00004819	
Si		0.00000000		0.00000000		0.00000000		0.00000000		0.00000000		0.00000000	
Si		-0.36648005		0.00000000		3.05400003		0.00000000		0.00000000		0.00000000	
Si		1.23099992		4.02649980		-0.14771997		0.00000000		0.00000000		0.00000000	
Si		0.86451987		4.02649980		2.90627981		0.00000000		0.00000000		0.00000000	
Mg		-0.54971996		2.03740888		4.58099980		 0.00004234		-0.00013431		-0.00001280	
Mg		-0.18323990		6.01559096		1.52700002		-0.00004234		 0.00013431		 0.00001280	
Mg		0.68127996		6.06390992		4.43327983		 0.00004224		-0.00013430		-0.00001291	
Mg		1.04776002		1.98909092		1.37928005		-0.00004224		 0.00013430		 0.00001291	
