# total energy = -12351.7718068 eV

CRYSTAL
PRIMVEC
		4.44490009		0.00000000		0.00000000
		0.00000000		4.66479819		0.00000000
		0.00000000		0.00000000		7.09983892
PRIMECORD
   20 1
O		0.47515982		2.21811227		1.77496017		 0.00061695		 0.00074445		0.00000000
O		3.96974027		2.44668814		5.32488008		-0.00061695		-0.00074445		0.00000000
O		2.69760987		0.11428816		5.32488008		 0.00061695		-0.00074445		0.00000000
O		1.74729023		4.55051314		1.77496017		-0.00061695		 0.00074445		0.00000000
O		0.83697513		0.90450517		3.99082021		-0.00002603		-0.00030478		-0.00019049
O		3.60792496		3.76029525		3.10902004		 0.00002603		 0.00030478		 0.00019049
O		3.05942518		1.42789482		3.10902004		-0.00002603		 0.00030478		 0.00019049
O		1.38547491		3.23690515		3.99082021		 0.00002603		-0.00030478		-0.00019049
O		3.60792496		3.76029525		0.44089986		 0.00002603		 0.00030478		-0.00019049
O		0.83697513		0.90450517		6.65893994		-0.00002603		-0.00030478		 0.00019049
O		1.38547491		3.23690515		6.65893994		 0.00002603		-0.00030478		 0.00019049
O		3.05942518		1.42789482		0.44089986		-0.00002603		 0.00030478		-0.00019049
Mg		2.30334723		2.71351416		1.77496017		-0.00091942		-0.00048528		0.00000000
Mg		2.14155286		1.95128625		5.32488008		 0.00091942		 0.00048528		0.00000000
Mg		0.08089718		4.28368623		5.32488008		-0.00091942		 0.00048528		-0.00000000
Mg		4.36400291		0.38111418		1.77496017		 0.00091942		-0.00048528		-0.00000000
Si		2.22245005		0.00000000		3.54991990		0.00000000		0.00000000		0.00000000
Si		0.00000000		2.33239998		3.54991990		0.00000000		-0.00000000		0.00000000
Si		2.22245005		0.00000000		0.00000000		0.00000000		-0.00000000		0.00000000
Si		0.00000000		2.33239998		0.00000000		0.00000000		0.00000000		0.00000000
