# total energy = -12337.3487605 eV

CRYSTAL
PRIMVEC
		4.44490009		0.00000000		0.00000000
		0.00000000		4.66479819		0.00000000
		0.00000000		0.00000000		5.80895992
PRIMECORD
   20 1
O		0.47515982		2.21811227		1.45223998		-0.00005249		-0.00002930		-0.00000000
O		3.96974027		2.44668814		4.35671994		 0.00005249		 0.00002930		-0.00000000
O		2.69760987		0.11428816		4.35671994		-0.00005249		 0.00002930		-0.00000000
O		1.74729023		4.55051314		1.45223998		 0.00005249		-0.00002930		-0.00000000
O		0.83697513		0.90450517		3.26521605		 0.00055652		 0.00044586		 0.00018205
O		3.60792496		3.76029525		2.54374387		-0.00055652		-0.00044586		-0.00018205
O		3.05942518		1.42789482		2.54374387		 0.00055652		-0.00044586		-0.00018205
O		1.38547491		3.23690515		3.26521605		-0.00055652		 0.00044586		 0.00018205
O		3.60792496		3.76029525		0.36073609		-0.00055652		-0.00044586		 0.00018205
O		0.83697513		0.90450517		5.44822428		 0.00055652		 0.00044586		-0.00018205
O		1.38547491		3.23690515		5.44822428		-0.00055652		 0.00044586		-0.00018205
O		3.05942518		1.42789482		0.36073609		 0.00055652		-0.00044586		 0.00018205
Mg		2.30334723		2.71351416		1.45223998		-0.00053519		-0.00034751		0.00000000
Mg		2.14155286		1.95128625		4.35671994		 0.00053519		 0.00034751		0.00000000
Mg		0.08089718		4.28368623		4.35671994		-0.00053519		 0.00034751		-0.00000000
Mg		4.36400291		0.38111418		1.45223998		 0.00053519		-0.00034751		-0.00000000
Si		2.22245005		0.00000000		2.90447996		0.00000000		0.00000000		0.00000000
Si		0.00000000		2.33239998		2.90447996		0.00000000		0.00000000		-0.00000000
Si		2.22245005		0.00000000		0.00000000		0.00000000		0.00000000		0.00000000
Si		0.00000000		2.33239998		0.00000000		0.00000000		0.00000000		0.00000000
