# total energy = -12341.1374941 eV

CRYSTAL
PRIMVEC
		4.44490009		0.00000000		0.00000000
		0.00000000		4.66479819		0.00000000
		0.00000000		0.00000000		5.97031869
PRIMECORD
   20 1
O		0.47515982		2.21811227		1.49258012		 0.00008330		 0.00018177		-0.00000000
O		3.96974027		2.44668814		4.47773990		-0.00008330		-0.00018177		-0.00000000
O		2.69760987		0.11428816		4.47773990		 0.00008330		-0.00018177		0.00000000
O		1.74729023		4.55051314		1.49258012		-0.00008330		 0.00018177		0.00000000
O		0.83697513		0.90450517		3.35591691		 0.00065320		 0.00065627		 0.00046318
O		3.60792496		3.76029525		2.61440311		-0.00065320		-0.00065627		-0.00046318
O		3.05942518		1.42789482		2.61440311		 0.00065320		-0.00065627		-0.00046318
O		1.38547491		3.23690515		3.35591691		-0.00065320		 0.00065627		 0.00046318
O		3.60792496		3.76029525		0.37075712		-0.00065320		-0.00065627		 0.00046318
O		0.83697513		0.90450517		5.59956290		 0.00065320		 0.00065627		-0.00046318
O		1.38547491		3.23690515		5.59956290		-0.00065320		 0.00065627		-0.00046318
O		3.05942518		1.42789482		0.37075712		 0.00065320		-0.00065627		 0.00046318
Mg		2.30334723		2.71351416		1.49258012		-0.00086268		-0.00022515		0.00000000
Mg		2.14155286		1.95128625		4.47773990		 0.00086268		 0.00022515		0.00000000
Mg		0.08089718		4.28368623		4.47773990		-0.00086268		 0.00022515		0.00000000
Mg		4.36400291		0.38111418		1.49258012		 0.00086268		-0.00022515		0.00000000
Si		2.22245005		0.00000000		2.98516023		-0.00000000		0.00000000		0.00000000
Si		0.00000000		2.33239998		2.98516023		-0.00000000		0.00000000		0.00000000
Si		2.22245005		0.00000000		0.00000000		0.00000000		0.00000000		0.00000000
Si		0.00000000		2.33239998		0.00000000		0.00000000		0.00000000		0.00000000
