# total energy = -12350.7140467 eV

CRYSTAL
PRIMVEC
		4.44490009		0.00000000		0.00000000
		0.00000000		4.66479819		0.00000000
		0.00000000		0.00000000		6.77712139
PRIMECORD
   20 1
O		0.47515982		2.21811227		1.69427990		 0.00042924		 0.00044602		-0.00000000
O		3.96974027		2.44668814		5.08284016		-0.00042924		-0.00044602		-0.00000000
O		2.69760987		0.11428816		5.08284016		 0.00042924		-0.00044602		0.00000000
O		1.74729023		4.55051314		1.69427990		-0.00042924		 0.00044602		0.00000000
O		0.83697513		0.90450517		3.80941895		 0.00014525		-0.00006086		-0.00023612
O		3.60792496		3.76029525		2.96770111		-0.00014525		 0.00006086		 0.00023612
O		3.05942518		1.42789482		2.96770111		 0.00014525		 0.00006086		 0.00023612
O		1.38547491		3.23690515		3.80941895		-0.00014525		-0.00006086		-0.00023612
O		3.60792496		3.76029525		0.42085914		-0.00014525		 0.00006086		-0.00023612
O		0.83697513		0.90450517		6.35626092		 0.00014525		-0.00006086		 0.00023612
O		1.38547491		3.23690515		6.35626092		-0.00014525		-0.00006086		 0.00023612
O		3.05942518		1.42789482		0.42085914		 0.00014525		 0.00006086		-0.00023612
Mg		2.30334723		2.71351416		1.69427990		-0.00037892		-0.00030722		0.00000000
Mg		2.14155286		1.95128625		5.08284016		 0.00037892		 0.00030722		0.00000000
Mg		0.08089718		4.28368623		5.08284016		-0.00037892		 0.00030722		-0.00000000
Mg		4.36400291		0.38111418		1.69427990		 0.00037892		-0.00030722		-0.00000000
Si		2.22245005		0.00000000		3.38856025		0.00000000		-0.00000000		0.00000000
Si		0.00000000		2.33239998		3.38856025		0.00000000		0.00000000		0.00000000
Si		2.22245005		0.00000000		0.00000000		0.00000000		0.00000000		0.00000000
Si		0.00000000		2.33239998		0.00000000		0.00000000		0.00000000		0.00000000
