# total energy = -34527.5027786 eV

CRYSTAL
PRIMVEC
		9.34399986		0.00000000		0.00000000
		0.00000000		5.30799928		-0.63696178
		-0.48050585		-1.59375934		13.28130911
PRIMECORD
   56 1
Si		1.25702494		1.96276136		4.51759967		-0.00025506		 0.00041012		-0.00063228
Si		7.60647094		1.75148232		8.12674952		 0.00025506		-0.00041012		 0.00063228
Si		7.84672293		2.32330053		1.51310193		 0.00000133		 0.00025022		 0.00030529
Si		1.01677295		1.39094221		11.13124913		-0.00000133		-0.00025022		-0.00030529
Si		5.92902487		4.61676100		4.19911972		-0.00014790		 0.00041434		-0.00061429
Si		2.93447101		-0.90251826		8.44522948		 0.00014790		-0.00041434		 0.00061429
Si		3.17472300		4.97730111		1.19462197		-0.00006705		 0.00020588		 0.00016046
Si		5.68877288		-1.26305836		11.44972909		 0.00006705		-0.00020588		-0.00016046
Mg		4.43174794		1.85712091		6.32217460		0.00000000		0.00000000		0.00000000
Mg		4.67199993		2.65399964		-0.31847996		0.00000000		0.00000000		0.00000000
Mg		-0.24025199		-0.79687873		6.64065455		0.00000000		0.00000000		0.00000000
Mg		0.00000000		0.00000000		0.00000000		0.00000000		0.00000000		0.00000000
O		0.46208042		0.53777616		4.83507609		 0.00025883		 0.00024472		-0.00065545
O		8.40141453		3.17646659		7.80927404		-0.00025883		-0.00024472		 0.00065545
O		8.64166745		0.93398418		1.53334197		-0.00008921		 0.00032771		-0.00035346
O		0.22182843		2.78025763		11.11100816		 0.00008921		-0.00032771		 0.00035346
O		5.13408034		3.19177580		4.51659613		 0.00025610		 0.00021382		-0.00062077
O		3.72941553		0.52246695		8.12775400		-0.00025610		-0.00021382		 0.00062077
O		3.96966752		3.58798382		1.21486201		-0.00007048		 0.00028020		-0.00036919
O		4.89382835		0.12625799		11.42948812		 0.00007048		-0.00028020		 0.00036919
O		2.66276525		1.76088425		5.34542387		-0.00053050		 0.00000866		-0.00044187
O		6.20072970		1.95335943		7.29892720		 0.00053050		-0.00000866		 0.00044187
O		6.44098262		2.31710453		0.71024677		 0.00056627		-0.00011805		-0.00046800
O		2.42251326		1.39713822		11.93410336		-0.00056627		 0.00011805		 0.00046800
O		7.33476517		4.41488389		5.02694391		-0.00055148		-0.00000265		-0.00045970
O		1.52873070		-0.70064114		7.61740715		 0.00055148		 0.00000265		 0.00045970
O		1.76898269		4.97110510		0.39176682		 0.00069023		-0.00010395		-0.00037187
O		7.09451318		-1.25686236		12.25258425		-0.00069023		 0.00010395		 0.00037187
O		0.40556510		2.98071353		5.21606179		 0.00002236		 0.00055424		-0.00060809
O		8.45793078		0.73352922		7.42828927		-0.00002236		-0.00055424		 0.00060809
O		8.69818277		3.54107881		0.54635302		-0.00068350		-0.00050107		-0.00053389
O		0.16531218		0.17316394		12.09799711		 0.00068350		 0.00050107		 0.00053389
O		5.07756409		0.32671295		5.53454175		-0.00001398		 0.00060910		-0.00059723
O		3.78593085		3.38752886		7.10980931		 0.00001398		-0.00060910		 0.00059723
O		4.02618284		0.88707917		0.86483297		-0.00068778		-0.00046387		-0.00052790
O		4.83731210		2.82716358		11.77951716		 0.00068778		 0.00046387		 0.00052790
O		1.45510185		2.70997580		2.97742537		 0.00088213		-0.00037541		-0.00022624
O		7.40839402		1.00426694		9.66692475		-0.00088213		 0.00037541		 0.00022624
O		7.64864601		2.71730711		2.91633057		-0.00045337		 0.00039961		 0.00001538
O		1.21484893		0.99693564		9.72801956		 0.00045337		-0.00039961		-0.00001538
O		6.12710085		0.05597617		3.29590533		 0.00082569		-0.00035173		-0.00020351
O		2.73639410		3.65826658		9.34844480		-0.00082569		 0.00035173		 0.00020351
O		2.97664609		0.06330653		3.23481052		-0.00044658		 0.00043989		 0.00010132
O		5.88684886		3.65093621		9.40953961		 0.00044658		-0.00043989		-0.00010132
Ca		1.59139157		2.40532590		0.88187362		-0.00003171		-0.00054949		 0.00078211
Ca		7.27210244		1.30891591		11.76247557		 0.00003171		 0.00054949		-0.00078211
Ca		7.51235443		1.89347467		5.14730023		-0.00008354		-0.00001471		-0.00020528
Ca		1.35113958		1.82076714		7.49705083		 0.00008354		 0.00001471		 0.00020528
Ca		6.26339149		5.05932554		0.56339367		-0.00004396		-0.00056099		 0.00075878
Ca		2.60010251		-1.34508280		12.08095553		 0.00004396		 0.00056099		-0.00075878
Ca		2.84035450		4.54747525		4.82882028		-0.00010395		-0.00003176		-0.00019723
Ca		6.02313950		-0.83323156		7.81553079		 0.00010395		 0.00003176		 0.00019723
Ca		-0.12012646		4.53322284		2.72852832		 0.00041442		 0.00039965		 0.00032050
Ca		-0.36037845		-0.81898103		9.91582275		-0.00041442		-0.00039965		-0.00032050
Ca		4.55187347		1.87922414		3.04700827		 0.00035417		 0.00040308		 0.00028887
Ca		4.31162148		1.83501861		9.59734279		-0.00035417		-0.00040308		-0.00028887
