# total energy = -34529.2564605 eV

CRYSTAL
PRIMVEC
		9.34399986		0.00000000		0.00000000
		0.00000000		5.30799928		0.42463807
		-0.48050585		1.06250622		13.28130911
PRIMECORD
   56 1
Si		1.25702494		2.92727706		5.02589364		-0.00000660		 0.00028299		 0.00010161
Si		7.60647094		3.44322751		8.68005541		 0.00000660		-0.00028299		-0.00010161
Si		7.84672293		2.68691668		2.02139590		 0.00009057		 0.00061384		 0.00005304
Si		1.01677295		3.68358789		11.68455502		-0.00009057		-0.00061384		-0.00005304
Si		5.92902487		5.58127670		5.23821362		-0.00009119		 0.00021810		 0.00016767
Si		2.93447101		0.78922787		8.46773543		 0.00009119		-0.00021810		-0.00016767
Si		3.17472300		5.34091726		2.23371587		 0.00033669		 0.00063884		 0.00007158
Si		5.68877288		1.02958825		11.47223505		-0.00033669		-0.00063884		-0.00007158
Mg		4.43174794		3.18525182		6.85297452		0.00000000		0.00000000		0.00000000
Mg		4.67199993		2.65399964		0.21231997		0.00000000		0.00000000		0.00000000
Mg		-0.24025199		0.53125218		6.64065455		0.00000000		0.00000000		0.00000000
Mg		0.00000000		0.00000000		0.00000000		0.00000000		0.00000000		0.00000000
O		0.46208042		1.53201512		5.06193999		-0.00015986		-0.00001625		 0.00008906
O		8.40141453		4.83849038		8.64401093		 0.00015986		 0.00001625		-0.00008906
O		8.64166745		1.26787613		1.76020587		 0.00010063		 0.00011777		-0.00055120
O		0.22182843		5.10262751		11.94574411		-0.00010063		-0.00011777		 0.00055120
O		5.13408034		4.18601476		5.27425996		-0.00011746		 0.00003189		 0.00008155
O		3.72941553		2.18448981		8.43169095		 0.00011746		-0.00003189		-0.00008155
O		3.96966752		3.92187670		1.97252584		 0.00006453		 0.00016324		-0.00054428
O		4.89382835		2.44862787		11.73342414		-0.00006453		-0.00016324		 0.00054428
O		2.66276525		2.88846676		5.83291062		-0.00030617		-0.00023460		 0.00021847
O		6.20072970		3.48203781		7.87304030		 0.00030617		 0.00023460		-0.00021847
O		6.44098262		2.51765293		1.19773352		 0.00029799		-0.00004711		-0.00027665
O		2.42251326		3.85285164		12.50821646		-0.00029799		 0.00004711		 0.00027665
O		7.33476517		5.54246733		6.04523059		-0.00026840		-0.00023643		 0.00022702
O		1.52873070		0.82803817		7.66072033		 0.00026840		 0.00023643		-0.00022702
O		1.76898269		5.17165257		1.41005443		 0.00014806		-0.00005372		-0.00035938
O		7.09451318		1.19885200		12.29589649		-0.00014806		 0.00005372		 0.00035938
O		0.40556510		4.11174958		5.94792871		-0.00006870		-0.00014920		 0.00090290
O		8.45793078		2.25875499		7.75802220		 0.00006870		 0.00014920		-0.00090290
O		8.69818277		3.73817273		1.27821994		 0.00065480		 0.00010143		 0.00018986
O		0.16531218		2.63233184		12.42773005		-0.00065480		-0.00010143		-0.00018986
O		5.07756409		1.45774994		5.73560874		-0.00005411		-0.00015536		 0.00089773
O		3.78593085		4.91275463		7.97034217		 0.00005411		 0.00015536		-0.00089773
O		4.02618284		1.08417309		1.06589996		 0.00057168		 0.00000762		 0.00025545
O		4.83731210		5.28633148		12.64005002		-0.00057168		-0.00000762		-0.00025545
O		1.45510185		3.38015083		3.59984135		-0.00005367		-0.00013047		 0.00025740
O		7.40839402		2.99035373		10.10610863		 0.00005367		 0.00013047		-0.00025740
O		7.64864601		3.37526299		3.53874654		-0.00046907		-0.00001433		 0.00042886
O		1.21484893		2.99524158		10.16720344		 0.00046907		 0.00001433		-0.00042886
O		6.12710085		0.72615026		3.38752138		-0.00003876		-0.00010881		 0.00019771
O		2.73639410		5.64435431		10.31842860		 0.00003876		 0.00010881		-0.00019771
O		2.97664609		0.72126335		3.32642657		-0.00048930		-0.00000830		 0.00043635
O		5.88684886		5.64924215		10.37952341		 0.00048930		 0.00000830		-0.00043635
Ca		1.59139157		2.64284851		1.39144212		 0.00009416		 0.00067400		 0.00018003
Ca		7.27210244		3.72765606		12.31450787		-0.00009416		-0.00067400		-0.00018003
Ca		7.51235443		2.98408297		5.65686779		-0.00002069		 0.00024768		 0.00047027
Ca		1.35113958		3.38642159		8.04908313		 0.00002069		-0.00024768		-0.00047027
Ca		6.26339149		5.29684908		1.60376209		 0.00005784		 0.00067677		 0.00018005
Ca		2.60010251		1.07365642		12.10218790		-0.00005784		-0.00067677		-0.00018005
Ca		2.84035450		5.63808261		5.86918776		-0.00000562		 0.00024376		 0.00047110
Ca		6.02313950		0.73242195		7.83676316		 0.00000562		-0.00024376		-0.00047110
Ca		-0.12012646		5.19728876		3.71486132		-0.00040714		-0.00007428		-0.00004614
Ca		-0.36037845		1.17321580		9.99108960		 0.00040714		 0.00007428		 0.00004614
Ca		4.55187347		2.54328913		3.50254135		-0.00041035		-0.00006858		-0.00005480
Ca		4.31162148		3.82721638		10.20340957		 0.00041035		 0.00006858		 0.00005480
