# total energy = -10828.612264 eV	

CRYSTAL	
PRIMVEC	
		3.03200124		-0.48512155		0.00000000	
		-1.93612600		2.86834937		0.00000000	
		0.00000000		0.00000000		14.96000193	
PRIMCOORD
   13 1	
Mg		1.37595801		0.63270301		2.49333304		 0.00013905		 0.00076610		 0.00046299	
Mg		-0.28008399		1.75052604		12.46666643		-0.00013905		-0.00076610		-0.00046299	
Mg		0.00000000		0.00000000		0.00000000		0.00000000		0.00000000		0.00000000	
Mg		-0.28008399		1.75052604		4.98666731		 0.00060328		 0.00009297		-0.00020007	
Mg		1.37595801		0.63270301		9.97333339		-0.00060328		-0.00009297		 0.00020007	
O		1.37595801		0.63270301		13.71333464		 0.00049218		 0.00027721		 0.00014022	
O		-0.28008399		1.75052604		1.24666606		-0.00049218		-0.00027721		-0.00014022	
O		1.37595801		0.63270301		6.08872022		-0.00001317		 0.00024003		 0.00064973	
O		-0.28008399		1.75052604		8.87128048		 0.00001317		-0.00024003		-0.00064973	
O		0.00000000		0.00000000		11.22299233		 0.00024139		 0.00055480		-0.00010440	
O		0.00000000		0.00000000		3.73700806		-0.00024139		-0.00055480		 0.00010440	
H		1.37595801		0.63270301		7.07907214		-0.00016041		-0.00011751		-0.00070522	
H		-0.28008399		1.75052604		7.88092917		 0.00016041		 0.00011751		 0.00070522	
