# total energy = -10831.0036077 eV	

CRYSTAL	
PRIMVEC	
		3.03199896		0.24255931		0.00000000	
		-1.30593603		2.50450965		0.00000000	
		0.00000000		0.00000000		14.95999782	
PRIMCOORD
   13 1	
Mg		1.58602093		0.99654296		2.49333297		 0.00012733		-0.00010697		 0.00065730	
Mg		0.14004199		1.75052600		12.46666515		-0.00012733		 0.00010697		-0.00065730	
Mg		0.00000000		0.00000000		0.00000000		0.00000000		0.00000000		0.00000000	
Mg		0.14004199		1.75052600		4.98666655		-0.00076575		-0.00012804		-0.00048804	
Mg		1.58602093		0.99654296		9.97333249		 0.00076575		 0.00012804		 0.00048804	
O		1.58602093		0.99654296		13.71333300		-0.00052091		 0.00063632		 0.00074160	
O		0.14004199		1.75052600		1.24666603		 0.00052091		-0.00063632		-0.00074160	
O		1.58602093		0.99654296		6.08871953		-0.00031396		 0.00004194		 0.00091100	
O		0.14004199		1.75052600		8.87127950		 0.00031396		-0.00004194		-0.00091100	
O		0.00000000		0.00000000		11.22299123		-0.00031892		 0.00022950		-0.00055581	
O		0.00000000		0.00000000		3.73700780		 0.00031892		-0.00022950		 0.00055581	
H		1.58602093		0.99654296		7.07907144		 0.00069782		-0.00004146		-0.00039389	
H		0.14004199		1.75052600		7.88092850		-0.00069782		 0.00004146		 0.00039389	
