# total energy = -49448.1240656 eV	

CRYSTAL	
PRIMVEC	
		14.02399962		0.00000000		0.00000000	
		0.00000000		5.10899916		0.00000000	
		0.00000000		0.00000000		8.73299700	
PRIMCOORD
   70 1	
Mg		2.42755433		1.67524108		0.04628481		-0.00002564		 0.00036165		-0.00033071	
Mg		11.59644529		3.43375948		0.04628481		 0.00002564		-0.00036165		-0.00033071	
Mg		9.43955414		0.87925850		4.41278471		-0.00002564		-0.00036165		-0.00033071	
Mg		4.58444548		4.22974066		4.41278471		 0.00002564		 0.00036165		-0.00033071	
Mg		2.48925993		4.27010173		1.53002257		-0.00042488		-0.00023967		 0.00019878	
Mg		11.53473969		0.83889743		1.53002257		 0.00042488		 0.00023967		 0.00019878	
Mg		9.50125974		3.39339841		5.89652106		-0.00042488		 0.00023967		 0.00019878	
Mg		4.52273988		1.71560215		5.89652106		 0.00042488		-0.00023967		 0.00019878	
Mg		4.54377588		1.76822441		2.83123937		 0.00009147		-0.00074960		 0.00012049	
Mg		9.48022374		3.34077475		2.83123937		-0.00009147		 0.00074960		 0.00012049	
Mg		11.55577569		0.78627517		7.19773927		 0.00009147		 0.00074960		 0.00012049	
Mg		2.46822393		4.32272539		7.19773927		-0.00009147		-0.00074960		 0.00012049	
Mg		0.00000000		2.55449958		7.23616363		0.00000000		0.00000000		-0.00008567	
Mg		7.01199981		0.00000000		2.86966373		0.00000000		0.00000000		-0.00008567	
Mg		0.00000000		2.55449958		1.63307091		0.00000000		0.00000000		-0.00034469	
Mg		7.01199981		0.00000000		5.99957082		0.00000000		0.00000000		-0.00034469	
Mg		0.00000000		0.00000000		5.78561226		0.00000000		0.00000000		-0.00076127	
Mg		7.01199981		2.55449958		1.41911236		0.00000000		0.00000000		-0.00076127	
Mg		0.00000000		0.00000000		3.01725090		0.00000000		0.00000000		 0.00043839	
Mg		7.01199981		2.55449958		7.38375080		0.00000000		0.00000000		 0.00043839	
Si		0.00000000		0.00000000		0.06724368		0.00000000		0.00000000		-0.00016661	
Si		7.01199981		2.55449958		4.43374358		0.00000000		0.00000000		-0.00016661	
Si		5.28143826		0.07203708		0.04453742		-0.00006555		-0.00014799		-0.00021132	
Si		8.74256136		5.03696348		0.04453742		 0.00006555		 0.00014799		-0.00021132	
Si		12.29343807		2.48246250		4.41103732		-0.00006555		 0.00014799		-0.00021132	
Si		1.73056155		2.62653666		4.41103732		 0.00006555		-0.00014799		-0.00021132	
O		5.82416704		3.62125895		8.67710855		-0.00025102		-0.00025264		 0.00027277	
O		8.19983258		1.48774161		8.67710855		 0.00025102		 0.00025264		 0.00027277	
O		12.83616825		4.04224119		4.31060865		-0.00025102		 0.00025264		 0.00027277	
O		1.18783277		1.06675937		4.31060865		 0.00025102		-0.00025264		 0.00027277	
O		1.09807917		3.54104728		0.04366513		 0.00006724		-0.00062689		-0.00005681	
O		12.92592045		1.56795188		0.04366513		-0.00006724		 0.00062689		-0.00005681	
O		8.11007898		4.12245145		4.41016503		 0.00006724		 0.00062689		-0.00005681	
O		5.91392064		0.98654770		4.41016503		-0.00006724		-0.00062689		-0.00005681	
O		3.49898791		0.11239815		3.01375752		-0.00011771		-0.00027912		-0.00008087	
O		10.52501171		4.99660241		3.01375752		 0.00011771		 0.00027912		-0.00008087	
O		10.51098912		2.44210143		7.38025742		-0.00011771		 0.00027912		-0.00008087	
O		3.51301190		2.66689773		7.38025742		 0.00011771		-0.00027912		-0.00008087	
O		3.57892470		2.61580830		1.41474529		-0.00011629		-0.00059585		 0.00085112	
O		10.44507492		2.49319226		1.41474529		 0.00011629		 0.00059585		 0.00085112	
O		10.59092451		5.04769184		5.78124519		-0.00011629		 0.00059585		 0.00085112	
O		3.43307511		0.06130732		5.78124519		 0.00011629		-0.00059585		 0.00085112	
O		1.06582397		0.73569622		1.33702148		 0.00014521		 0.00011457		-0.00015923	
O		12.95817705		4.37330434		1.33702148		-0.00014521		-0.00011457		-0.00015923	
O		8.07782378		1.81880336		5.70352138		 0.00014521		-0.00011457		-0.00015923	
O		5.94617584		3.29019579		5.70352138		-0.00014521		 0.00011457		-0.00015923	
O		6.02751504		3.30552262		3.16047240		-0.00041898		 0.00067231		 0.00027526	
O		7.99648318		1.80347653		3.16047240		 0.00041898		-0.00067231		 0.00027526	
O		13.03951625		4.35797752		7.52697230		-0.00041898		-0.00067231		 0.00027526	
O		0.98448477		0.75102304		7.52697230		 0.00041898		 0.00067231		 0.00027526	
O		5.81294784		0.78167670		1.39640751		 0.00023028		-0.00006414		-0.00027315	
O		8.21105178		4.32732245		1.39640751		-0.00023028		 0.00006414		-0.00027315	
O		12.82494765		1.77282288		5.76290741		 0.00023028		 0.00006414		-0.00027315	
O		1.19905197		3.33617628		5.76290741		-0.00023028		-0.00006414		-0.00027315	
O		1.24673357		3.49966526		3.03821117		-0.00003347		-0.00028025		-0.00048578	
O		12.77726605		1.60933530		3.03821117		 0.00003347		 0.00028025		-0.00048578	
O		8.25873338		4.16383487		7.40471107		-0.00003347		 0.00028025		-0.00048578	
O		5.76526624		0.94516428		7.40471107		 0.00003347		-0.00028025		-0.00048578	
O		3.64343510		0.02452237		0.06113061		 0.00010596		-0.00011746		 0.00008000	
O		10.38056592		5.08447679		0.06113061		-0.00010596		 0.00011746		 0.00008000	
O		10.65543491		2.52997721		4.42763051		 0.00010596		 0.00011746		 0.00008000	
O		3.36856471		2.57902335		4.42763051		-0.00010596		-0.00011746		 0.00008000	
H		4.20719989		3.06539949		0.87329970		-0.00040113		-0.00022211		 0.00041554	
H		9.81679973		2.04359966		0.87329970		 0.00040113		 0.00022211		 0.00041554	
H		11.21919970		4.59809924		5.23979960		-0.00040113		 0.00022211		 0.00041554	
H		2.80479992		0.51089992		5.23979960		 0.00040113		-0.00022211		 0.00041554	
H		3.78647990		0.91961957		3.92985005		 0.00046734		-0.00088541		-0.00015617	
H		10.23751972		4.18937959		3.92985005		-0.00046734		 0.00088541		-0.00015617	
H		10.79847971		1.63488001		8.29634995		 0.00046734		 0.00088541		-0.00015617	
H		3.22551991		3.47412055		8.29634995		-0.00046734		-0.00088541		-0.00015617	
