# total energy = -20635.1846188 eV

CRYSTAL
PRIMVEC
		10.20140980		0.00000000		0.00000000
		0.00000000		5.98348390		0.00000000
		0.00000000		0.00000000		4.27980765
PRIMECORD
   28 1
Mg		0.00000000		0.00000000		0.00000000		0.00000000		0.00000000		0.00000000
Mg		5.10070490		0.00000000		2.13990281		0.00000000		-0.00000000		0.00000000
Mg		0.00000000		2.99173991		0.00000000		0.00000000		0.00000000		-0.00000000
Mg		5.10070490		2.99173991		2.13990281		0.00000000		0.00000000		-0.00000000
Mg		2.82885094		1.49587046		4.24342841		 0.00014604		0.00000000		 0.00037079
Mg		7.37255886		4.48761037		0.03637823		-0.00014604		0.00000000		-0.00037079
Mg		2.27185396		4.48761037		2.10352458		-0.00014604		-0.00000000		 0.00037079
Mg		7.92955584		1.49587046		2.17628103		 0.00014604		0.00000000		-0.00037079
Si		0.95893252		1.49587046		1.82490878		 0.00033786		0.00000000		 0.00070085
Si		9.24247830		4.48761037		2.45489684		-0.00033786		0.00000000		-0.00070085
Si		4.14177340		4.48761037		3.96481158		-0.00033786		0.00000000		 0.00070085
Si		6.05963742		1.49587046		0.31499403		 0.00033786		0.00000000		-0.00070085
O		0.93444914		1.49587046		3.27533502		-0.00013049		0.00000000		-0.00028403
O		9.26696066		4.48761037		1.00447059		 0.00013049		0.00000000		 0.00028403
O		4.16625576		4.48761037		1.13543221		 0.00013049		0.00000000		-0.00028403
O		6.03515404		1.49587046		3.14437442		-0.00013049		-0.00000000		 0.00028403
O		4.55901004		1.49587046		0.94626543		 0.00067276		0.00000000		 0.00092774
O		5.64239976		4.48761037		3.33354120		-0.00067276		-0.00000000		-0.00092774
O		0.54169486		4.48761037		3.08616824		-0.00067276		0.00000000		 0.00092774
O		9.65971596		1.49587046		1.19363840		 0.00067276		0.00000000		-0.00092774
O		1.65976937		0.19865205		1.18893045		 0.00006716		 0.00067072		-0.00056882
O		8.54164042		5.78482776		3.09087619		-0.00006716		-0.00067072		 0.00056882
O		3.44093552		5.78482776		3.32883325		-0.00006716		-0.00067072		-0.00056882
O		6.76047529		0.19865205		0.95097338		 0.00006716		 0.00067072		 0.00056882
O		8.54164042		3.19039196		3.09087619		-0.00006716		 0.00067072		 0.00056882
O		1.65976937		2.79308785		1.18893045		 0.00006716		-0.00067072		-0.00056882
O		6.76047529		2.79308785		0.95097338		 0.00006716		-0.00067072		 0.00056882
O		3.44093552		3.19039196		3.32883325		-0.00006716		 0.00067072		-0.00056882
