# total energy = -12337.9440542 eV

CRYSTAL
PRIMVEC
		2.46200010		0.00000000		0.00000000
		0.00000000		8.05300044		0.00000000
		0.00000000		0.00000000		5.95530003
PRIMECORD
   20 1
O		0.00000000		0.58786900		1.48882513		0.00000000		 0.00039663		-0.00000433
O		0.00000000		7.46513119		4.46647515		0.00000000		-0.00039663		 0.00000433
O		1.23100005		4.61436922		1.48882513		0.00000000		 0.00039626		-0.00000633
O		1.23100005		3.43863122		4.46647515		0.00000000		-0.00039626		 0.00000633
O		0.00000000		2.92323907		2.62628715		0.00000000		 0.00012741		 0.00018585
O		0.00000000		5.12976112		3.32901313		0.00000000		-0.00012741		-0.00018585
O		0.00000000		5.12976112		5.60393716		0.00000000		-0.00012947		 0.00018802
O		0.00000000		2.92323907		0.35136311		0.00000000		 0.00012947		-0.00018802
O		1.23100005		6.94974028		2.62628715		0.00000000		 0.00012791		 0.00018623
O		1.23100005		1.10326114		3.32901313		0.00000000		-0.00012791		-0.00018623
O		1.23100005		1.10326114		5.60393716		0.00000000		-0.00012882		 0.00018736
O		1.23100005		6.94974028		0.35136311		0.00000000		 0.00012882		-0.00018736
Si		0.00000000		0.00000000		0.00000000		0.00000000		0.00000000		0.00000000
Si		0.00000000		0.00000000		2.97765002		0.00000000		0.00000000		0.00000000
Si		1.23100005		4.02650022		0.00000000		0.00000000		0.00000000		0.00000000
Si		1.23100005		4.02650022		2.97765002		0.00000000		0.00000000		0.00000000
Mg		0.00000000		2.03740898		4.46647515		0.00000000		-0.00082004		-0.00000085
Mg		0.00000000		6.01559121		1.48882513		0.00000000		 0.00082004		 0.00000085
Mg		1.23100005		6.06391018		4.46647515		0.00000000		-0.00081973		-0.00000094
Mg		1.23100005		1.98909099		1.48882513		0.00000000		 0.00081973		 0.00000094
