# total energy = -12346.4040121 eV

CRYSTAL
PRIMVEC
		2.46200010		0.00000000		0.00000000
		0.00000000		8.05300044		0.00000000
		0.00000000		0.00000000		6.71880073
PRIMECORD
   20 1
O		0.00000000		0.58786900		1.67970006		0.00000000		 0.00063164		-0.00000439
O		0.00000000		7.46513119		5.03910018		0.00000000		-0.00063164		 0.00000439
O		1.23100005		4.61436922		1.67970006		0.00000000		 0.00063169		-0.00000438
O		1.23100005		3.43863122		5.03910018		0.00000000		-0.00063169		 0.00000438
O		0.00000000		2.92323907		2.96299102		0.00000000		 0.00008460		 0.00011471
O		0.00000000		5.12976112		3.75580922		0.00000000		-0.00008460		-0.00011471
O		0.00000000		5.12976112		6.32239015		0.00000000		-0.00007640		 0.00015207
O		0.00000000		2.92323907		0.39640910		0.00000000		 0.00007640		-0.00015207
O		1.23100005		6.94974028		2.96299102		0.00000000		 0.00008465		 0.00011465
O		1.23100005		1.10326114		3.75580922		0.00000000		-0.00008465		-0.00011465
O		1.23100005		1.10326114		6.32239015		0.00000000		-0.00007641		 0.00015201
O		1.23100005		6.94974028		0.39640910		0.00000000		 0.00007641		-0.00015201
Si		0.00000000		0.00000000		0.00000000		0.00000000		0.00000000		0.00000000
Si		0.00000000		0.00000000		3.35940012		0.00000000		0.00000000		0.00000000
Si		1.23100005		4.02650022		0.00000000		0.00000000		0.00000000		0.00000000
Si		1.23100005		4.02650022		3.35940012		0.00000000		0.00000000		0.00000000
Mg		0.00000000		2.03740898		5.03910018		0.00000000		 0.00008666		 0.00002624
Mg		0.00000000		6.01559121		1.67970006		0.00000000		-0.00008666		-0.00002624
Mg		1.23100005		6.06391018		5.03910018		0.00000000		 0.00008665		 0.00002624
Mg		1.23100005		1.98909099		1.67970006		-0.00000000		-0.00008665		-0.00002624
