# total energy = -49433.3009485 eV	

CRYSTAL	
PRIMVEC	
		18.18796389		0.00000000		0.00018233	
		0.00000000		8.73307795		0.00000000	
		0.00005470		0.00000000		5.12797638	
PRIMCOORD
   80 1	
Mg		6.84612479		5.72641442		4.39809118		-0.00037312		 0.00069024		-0.00004525	
Mg		11.34188468		3.00666718		0.73005477		 0.00038136		-0.00067913		 0.00004249	
Mg		2.24965128		3.00664348		1.83452417		 0.00035159		-0.00067556		-0.00002773	
Mg		15.93836184		5.72643265		3.29362177		-0.00036028		 0.00070150		 0.00002863	
Mg		11.34190838		1.35987909		3.29403931		 0.00038079		 0.00067938		 0.00004305	
Mg		6.84609926		7.37320798		1.83410664		-0.00037263		-0.00069028		-0.00004583	
Mg		15.93833813		7.37319340		0.72963541		-0.00036002		-0.00070221		 0.00002922	
Mg		2.24967498		1.35989732		4.39850872		 0.00035132		 0.00067617		-0.00002817	
Mg		6.85805100		4.22750506		1.79792690		 0.00009680		-0.00002579		 0.00009539	
Mg		11.32995848		4.50557289		3.33021905		-0.00008794		 0.00003744		-0.00009926	
Mg		2.23696111		4.50576069		4.36232168		-0.00010935		 0.00004894		 0.00008625	
Mg		15.95105747		4.22731362		0.76582244		 0.00008425		-0.00001677		-0.00007837	
Mg		11.32993477		8.59404951		0.76623451		-0.00008889		-0.00003730		-0.00010028	
Mg		6.85807470		0.13903756		4.36191144		 0.00009768		 0.00002568		 0.00009624	
Mg		15.95108118		0.13923448		3.32980698		 0.00008514		 0.00001665		-0.00007947	
Mg		2.23693741		8.59385806		1.79833714		-0.00011015		-0.00004882		 0.00008731	
Si		4.93264444		2.99621967		0.22694250		 0.00013786		-0.00030541		-0.00025543	
Si		13.25528663		5.73682364		4.90119798		 0.00016096		 0.00046258		 0.00027418	
Si		4.16236585		5.73692392		2.79096533		-0.00002325		 0.00039318		-0.00024785	
Si		14.02558163		2.99611210		2.33718244		 0.00026656		-0.00022037		 0.00023323	
Si		13.25525928		7.36280606		2.33721161		 0.00016733		-0.00047536		 0.00027599	
Si		4.93266996		1.37031930		2.79092886		 0.00013268		 0.00031618		-0.00025700	
Si		14.02560898		1.37042870		4.90116699		 0.00025674		 0.00023587		 0.00023585	
Si		4.16233850		7.36269848		0.22698079		-0.00001312		-0.00040778		-0.00025040	
Si		8.60333558		2.94800433		4.12288958		-0.00010338		-0.00013241		-0.00003488	
Si		9.58467207		5.78507909		1.00525454		 0.00011581		 0.00013484		 0.00003503	
Si		0.49023612		5.78485483		1.55864978		-0.00012190		 0.00024775		 0.00002295	
Si		17.69790280		2.94816113		3.56946518		-0.00034408		 0.00000217		 0.00008991	
Si		9.58469577		7.31454148		3.56923909		 0.00012117		-0.00012878		 0.00003848	
Si		8.60331187		1.41854194		1.55890504		-0.00011063		 0.00012492		-0.00003904	
Si		17.69787727		1.41838696		1.00548063		-0.00034758		-0.00000434		 0.00009230	
Si		0.49025983		7.31476210		4.12263614		-0.00011823		-0.00024539		 0.00002050	
O		3.32195586		2.97693281		0.12743590		-0.00014184		-0.00007774		-0.00019442	
O		14.86610284		5.75615426		5.00071005		-0.00003784		 0.00006414		 0.00018859	
O		5.77311460		5.75635118		2.69124723		 0.00008038		 0.00005715		-0.00019613	
O		12.41493134		2.97673589		2.43689689		-0.00021476		-0.00007042		 0.00020044	
O		14.86607914		7.34346996		2.43672368		-0.00004139		-0.00006283		 0.00018843	
O		3.32197956		1.38960799		2.69142227		-0.00013886		 0.00007652		-0.00019440	
O		12.41495322		1.38981038		5.00088144		-0.00020889		 0.00006929		 0.00020042	
O		5.77309272		7.34326940		0.12726269		 0.00007444		-0.00005637		-0.00019606	
O		5.64646454		4.41826417		0.17094166		-0.00024518		-0.00021607		 0.00019376	
O		12.54157410		4.31485936		4.95720064		 0.00014114		 0.00005825		-0.00018194	
O		3.44886482		4.31476455		2.73529998		 0.00020026		 0.00013872		 0.00018358	
O		14.73917382		4.41836081		2.39284779		-0.00030297		-0.00030767		-0.00019792	
O		12.54155040		0.05168508		2.39321427		 0.00013699		-0.00004981		-0.00018157	
O		5.64648824		8.68135640		2.73492803		-0.00024187		 0.00020889		 0.00019344	
O		14.73919752		8.68126706		4.95683416		-0.00029735		 0.00029702		-0.00019747	
O		3.44884112		0.05177260		0.17131544		 0.00019483		-0.00012828		 0.00018314	
O		5.52746687		1.91183391		4.25895152		 0.00036778		-0.00001095		-0.00033042	
O		12.66055537		6.82124951		0.86919808		-0.00041236		 0.00001087		 0.00031583	
O		3.56738114		6.82108359		1.69488310		-0.00036820		-0.00000191		-0.00031538	
O		14.62063744		1.91200166		3.43325738		 0.00034061		-0.00000242		 0.00033013	
O		12.66057907		6.27837472		3.43318444		-0.00041185		-0.00000709		 0.00031219	
O		5.52744134		2.45470871		1.69496515		 0.00036724		 0.00000784		-0.00032736	
O		14.62061374		2.45454644		0.86927466		 0.00033936		-0.00000173		 0.00032636	
O		3.56740485		6.27853517		4.25886765		-0.00036701		 0.00000554		-0.00031224	
O		10.22457924		2.96352608		4.13300160		-0.00013284		 0.00030540		 0.00064330	
O		7.96343388		5.76955734		0.99514252		 0.00012935		-0.00030803		-0.00064299	
O		17.05669562		5.76928567		1.56873627		 0.00029252		-0.00031521		 0.00065010	
O		1.13124274		2.96380140		3.55940968		-0.00001505		 0.00029982		-0.00065352	
O		7.96345940		7.33006324		3.55912889		 0.00012646		 0.00030778		-0.00064340	
O		10.22455371		1.40301836		1.56901524		-0.00012882		-0.00030531		 0.00064383	
O		1.13121540		1.40273940		0.99542331		-0.00001293		-0.00030010		-0.00065395	
O		17.05672114		7.33034038		4.13272264		 0.00029024		 0.00031567		 0.00065046	
O		7.87270100		4.22068045		3.50785587		 0.00011317		-0.00022973		-0.00038587	
O		10.31531029		4.51240115		1.62029008		-0.00011399		 0.00022646		 0.00038352	
O		1.22178053		4.51236468		0.94421411		-0.00001657		 0.00010405		-0.00042365	
O		16.96617972		4.22078620		4.18395919		 0.00020507		-0.00036154		 0.00031689	
O		10.31533764		8.58722308		4.18427645		-0.00011693		-0.00023163		 0.00038076	
O		7.87267548		0.14586035		0.94386950		 0.00011703		 0.00023624		-0.00038244	
O		16.96615419		0.14576007		1.61997465		 0.00020642		 0.00036413		 0.00031538	
O		1.22180605		8.58725407		3.50819865		-0.00001800		-0.00010681		-0.00042205	
O		8.11711983		1.65098716		3.15695815		 0.00015220		 0.00051825		-0.00047187	
O		10.07089329		7.08209445		1.97118597		-0.00015631		-0.00051720		 0.00047376	
O		0.97656492		7.08183189		0.59264359		-0.00014842		-0.00051087		-0.00047083	
O		17.21142997		1.65124606		4.53550418		 0.00021195		 0.00053264		 0.00046624	
O		10.07091699		6.01752796		4.53517052		-0.00015649		 0.00051624		 0.00047468	
O		8.11709613		2.71555547		0.59297361		 0.00015214		-0.00051707		-0.00047288	
O		17.21140626		2.71530203		1.97151782		 0.00021214		-0.00053285		 0.00046630	
O		0.97659044		6.01778504		3.15662813		-0.00014849		 0.00051097		-0.00047089	
