# total energy = -49432.0695218 eV	

CRYSTAL	
PRIMVEC	
		18.03108716		0.00000000		-0.00007293	
		0.00000000		8.61044280		0.00000000	
		-0.00001823		0.00000000		5.07488189	
PRIMCOORD
   80 1	
Mg		6.79200560		5.66157240		4.32618388		-0.00019523		-0.00056560		 0.00003353	
Mg		11.23907427		2.94887587		0.74861596		 0.00018908		 0.00056588		-0.00003346	
Mg		2.22452074		2.94897250		1.78940662		 0.00022294		 0.00055232		 0.00002578	
Mg		15.80655184		5.66147941		3.28539687		-0.00021791		-0.00056183		-0.00002387	
Mg		11.23906515		1.35634736		3.28605326		 0.00018966		-0.00056391		-0.00003408	
Mg		6.79201472		7.25409544		1.78874658		-0.00019589		 0.00056476		 0.00003420	
Mg		15.80656095		7.25419026		0.74795957		-0.00021692		 0.00056384		-0.00002258	
Mg		2.22451162		1.35624890		4.32684391		 0.00022221		-0.00055459		 0.00002481	
Mg		6.79967622		4.15703999		1.75472381		 0.00011358		-0.00043993		-0.00025046	
Mg		11.23140364		4.45340828		3.32007603		-0.00012226		 0.00044110		 0.00025051	
Mg		2.21736064		4.45351403		4.29305634		-0.00011576		 0.00042922		-0.00025603	
Mg		15.81370829		4.15693971		0.78174714		 0.00012690		-0.00044004		 0.00025456	
Mg		11.23141458		8.46226139		0.78263874		-0.00012287		-0.00044097		 0.00024933	
Mg		6.79966528		0.14818323		4.29216110		 0.00011342		 0.00043972		-0.00025003	
Mg		15.81369735		0.14828534		3.31918626		 0.00012742		 0.00044013		 0.00025446	
Mg		2.21736976		8.46215199		1.75561905		-0.00011585		-0.00042939		-0.00025634	
Si		4.88578927		2.96111568		0.19719900		 0.00025341		 0.00048045		-0.00003305	
Si		13.14530153		5.64933624		4.87760630		-0.00030290		-0.00050200		 0.00003075	
Si		4.13052556		5.64926877		2.73489339		-0.00006786		-0.00040046		-0.00008409	
Si		13.90055431		2.96118132		2.33991010		 0.00005655		 0.00037960		 0.00008498	
Si		13.14530336		7.26633890		2.34016718		-0.00027657		 0.00047801		 0.00003659	
Si		4.88578380		1.34410390		2.73463813		 0.00023740		-0.00046953		-0.00003724	
Si		13.90053972		1.34404373		4.87734739		 0.00007206		-0.00038875		 0.00008153	
Si		4.13054015		7.26639543		0.19745427		-0.00008369		 0.00041562		-0.00007998	
Si		8.52172467		2.91072879		4.08835264		 0.00000068		 0.00022594		-0.00020356	
Si		9.50937708		5.69970490		0.98645450		-0.00010059		-0.00018177		 0.00018077	
Si		0.49334850		5.69954445		1.55105573		 0.00003798		-0.00021500		-0.00022857	
Si		17.53768032		2.91092570		3.52375687		 0.00012396		 0.00012612		 0.00018718	
Si		9.50937161		7.21596842		3.52389362		-0.00011569		 0.00016126		 0.00017380	
Si		8.52173379		1.39449079		1.55091534		 0.00000578		-0.00021335		-0.00020029	
Si		17.53769490		1.39430664		0.98631775		 0.00010621		-0.00015242		 0.00019744	
Si		0.49333209		7.21611428		4.08849485		 0.00005787		 0.00024264		-0.00023919	
O		3.28418073		2.93583745		0.09473684		 0.00032093		-0.00002371		 0.00003247	
O		14.74688820		5.67460900		4.98007211		-0.00028908		 0.00002545		-0.00003368	
O		5.73218699		5.67463270		2.63167455		-0.00038805		 0.00001191		 0.00003826	
O		12.29889106		2.93581375		2.44312528		 0.00038893		-0.00001225		-0.00003738	
O		14.74690279		7.24106067		2.44263482		-0.00030557		-0.00002647		-0.00003415	
O		3.28416614		1.36938395		2.63217414		 0.00033130		 0.00002565		 0.00003265	
O		12.29888377		1.36940948		4.98056076		 0.00037897		 0.00000994		-0.00003706	
O		5.73219428		7.24103697		0.09423726		-0.00037807		-0.00001133		 0.00003796	
O		5.58116487		4.38460788		0.13836476		 0.00024347		 0.00015796		 0.00010236	
O		12.44990770		4.22583310		4.93643325		-0.00022839		-0.00013729		-0.00010355	
O		3.43547451		4.22568541		2.67655144		-0.00027999		-0.00022682		 0.00006012	
O		14.59559260		4.38475739		2.39825752		 0.00029212		 0.00024709		-0.00005905	
O		12.44992046		0.07938466		2.39899778		-0.00024031		 0.00015785		-0.00010168	
O		5.58115393		8.53106361		2.67580024		 0.00025007		-0.00016856		 0.00010134	
O		14.59558348		8.53090863		4.93569299		 0.00028587		-0.00023824		-0.00006016	
O		3.43548180		0.07953964		0.13911596		-0.00027254		 0.00021486		 0.00006142	
O		5.49476781		1.87881213		4.19319238		-0.00000425		 0.00048203		-0.00025607	
O		12.53630659		6.73162885		0.88161657		 0.00001187		-0.00048237		 0.00025705	
O		3.52144310		6.73138088		1.65586631		 0.00001414		-0.00046982		-0.00028205	
O		14.50963859		1.87906375		3.41893536		-0.00001667		 0.00046988		 0.00028152	
O		12.53629565		6.18403900		3.41905387		 0.00001444		 0.00048633		 0.00025520	
O		5.49477875		2.42640927		1.65575508		-0.00000592		-0.00048296		-0.00025632	
O		14.50964771		2.42616130		0.88149988		-0.00001520		-0.00046928		 0.00028061	
O		3.52143399		6.18428697		4.19330360		 0.00001242		 0.00046685		-0.00028351	
O		10.13409433		2.92231039		4.11275386		 0.00005812		-0.00026239		 0.00007734	
O		7.89696548		5.68813241		0.96204598		 0.00000386		 0.00026065		-0.00007605	
O		16.91195477		5.68779692		1.57482062		-0.00007676		 0.00025972		 0.00006745	
O		1.11914150		2.92264223		3.49998286		-0.00001816		-0.00025288		-0.00006627	
O		7.89695271		7.22753543		3.49948145		 0.00001128		-0.00025906		-0.00007556	
O		10.13410527		1.38291284		1.57531838		 0.00005680		 0.00026005		 0.00007713	
O		1.11914880		1.38257735		0.96254739		-0.00000990		 0.00025592		-0.00006690	
O		16.91194748		7.22787275		4.11225610		-0.00008651		-0.00026262		 0.00006831	
O		7.81004512		4.17313426		3.45003174		 0.00008693		 0.00021707		 0.00016778	
O		10.22102381		4.43732495		1.62476081		-0.00005053		-0.00026445		-0.00014512	
O		1.20601445		4.43730307		0.91320889		-0.00006213		-0.00019339		 0.00013245	
O		16.82507818		4.17312150		4.16158548		-0.00000398		 0.00028413		-0.00009324	
O		10.22101104		8.47833925		4.16219446		-0.00004067		 0.00028020		-0.00013779	
O		7.81005606		0.13209079		0.91259626		 0.00008191		-0.00022575		 0.00016367	
O		16.82508365		0.13209808		1.62415365		 0.00000782		-0.00026422		-0.00010296	
O		1.20600898		8.47837025		3.45064254		-0.00007468		 0.00017234		 0.00014257	
O		8.03189150		1.60754886		3.14261060		-0.00063330		 0.00002768		-0.00002836	
O		9.99917926		7.00289394		1.93219106		 0.00064928		-0.00002200		 0.00002834	
O		0.98328378		7.00272802		0.60529182		 0.00062801		-0.00001393		-0.00004065	
O		17.04779244		1.60771660		4.46950802		-0.00064928		 0.00000707		 0.00004259	
O		9.99917014		5.91277208		4.46962836		 0.00064817		 0.00002711		 0.00002553	
O		8.03190061		2.69767619		0.60517331		-0.00063272		-0.00003161		-0.00002584	
O		17.04780338		2.69750662		1.93207072		-0.00065003		-0.00000111		 0.00004646	
O		0.98327284		5.91293982		3.14272912		 0.00062888		 0.00000769		-0.00004459	
