# total energy = -20638.6309036 eV

CRYSTAL
PRIMVEC
		4.74599980		0.00000000		0.00000000
		0.00000000		9.92549923		0.00000000
		0.00000000		0.00000000		5.97600159
PRIMECORD
   28 1
Si		2.02227004		0.93200473		1.49399992		-0.00007302		-0.00020138		-0.00000000
Si		2.72372881		8.99349545		4.48199977		 0.00007302		 0.00020138		0.00000000
Si		4.39527089		4.03074583		4.48199977		-0.00007302		 0.00020138		0.00000000
Si		0.35072891		5.89475482		1.49399992		 0.00007302		-0.00020138		0.00000000
Mg		0.00000000		0.00000000		0.00000000		0.00000000		0.00000000		0.00000000
Mg		2.37299990		4.96274961		0.00000000		0.00000000		0.00000000		0.00000000
Mg		0.00000000		0.00000000		2.98799984		0.00000000		0.00000000		0.00000000
Mg		2.37299990		4.96274961		2.98799984		0.00000000		0.00000000		0.00000000
Mg		4.70518373		2.75134911		1.49399992		-0.00041166		 0.00080369		-0.00000000
Mg		0.04081607		7.17415154		4.48199977		 0.00041166		-0.00080369		-0.00000000
Mg		2.33218383		2.21140098		4.48199977		-0.00041166		-0.00080369		0.00000000
Mg		2.41381503		7.71409872		1.49399992		 0.00041166		 0.00080369		0.00000000
O		3.63590997		0.91215316		1.49399992		 0.00022594		 0.00053404		0.00000000
O		1.11008888		9.01334654		4.48199977		-0.00022594		-0.00053404		0.00000000
O		1.26291102		4.05059693		4.48199977		 0.00022594		-0.00053404		-0.00000000
O		3.48308878		5.87490372		1.49399992		-0.00022594		 0.00053404		-0.00000000
O		1.04506916		4.43570586		1.49399992		-0.00043085		-0.00010989		0.00000000
O		3.70093065		5.48979384		4.48199977		 0.00043085		 0.00010989		0.00000000
O		3.41806906		0.52704375		4.48199977		-0.00043085		 0.00010989		0.00000000
O		1.32793074		9.39845548		1.49399992		 0.00043085		-0.00010989		-0.00000000
O		1.31796415		1.61587103		0.19900120		-0.00058708		-0.00035879		-0.00011895
O		3.42803566		8.30962868		5.77699897		 0.00058708		 0.00035879		 0.00011895
O		3.69096405		3.34687906		5.77699897		-0.00058708		 0.00035879		 0.00011895
O		1.05503576		6.57862159		0.19900120		 0.00058708		-0.00035879		-0.00011895
O		3.42803566		8.30962868		3.18700104		 0.00058708		 0.00035879		-0.00011895
O		1.31796415		1.61587103		2.78899865		-0.00058708		-0.00035879		 0.00011895
O		1.05503576		6.57862159		2.78899865		 0.00058708		-0.00035879		 0.00011895
O		3.69096405		3.34687906		3.18700104		-0.00058708		 0.00035879		-0.00011895
