# total energy = -20637.3709742 eV

CRYSTAL
PRIMVEC
		4.74599980		0.00000000		0.00000000
		0.00000000		9.41650024		0.00000000
		0.00000000		0.00000000		5.97600159
PRIMECORD
   28 1
Si		2.02227004		0.88420919		1.49399992		-0.00006970		 0.00036073		-0.00000000
Si		2.72372881		8.53229058		4.48199977		 0.00006970		-0.00036073		-0.00000000
Si		4.39527089		3.82404093		4.48199977		-0.00006970		-0.00036073		0.00000000
Si		0.35072891		5.59245978		1.49399992		 0.00006970		 0.00036073		0.00000000
Mg		0.00000000		0.00000000		0.00000000		0.00000000		0.00000000		0.00000000
Mg		2.37299990		4.70824965		0.00000000		0.00000000		0.00000000		0.00000000
Mg		0.00000000		0.00000000		2.98799984		0.00000000		0.00000000		-0.00000000
Mg		2.37299990		4.70824965		2.98799984		0.00000000		0.00000000		0.00000000
Mg		4.70518373		2.61025386		1.49399992		-0.00025643		 0.00021468		-0.00000000
Mg		0.04081607		6.80624686		4.48199977		 0.00025643		-0.00021468		-0.00000000
Mg		2.33218383		2.09799579		4.48199977		-0.00025643		-0.00021468		0.00000000
Mg		2.41381503		7.31850350		1.49399992		 0.00025643		 0.00021468		0.00000000
O		3.63590997		0.86537611		1.49399992		-0.00031283		 0.00039528		-0.00000000
O		1.11008888		8.55112365		4.48199977		 0.00031283		-0.00039528		-0.00000000
O		1.26291102		3.84287401		4.48199977		-0.00031283		-0.00039528		0.00000000
O		3.48308878		5.57362576		1.49399992		 0.00031283		 0.00039528		-0.00000000
O		1.04506916		4.20823389		1.49399992		 0.00057511		-0.00029554		-0.00000000
O		3.70093065		5.20826588		4.48199977		-0.00057511		 0.00029554		-0.00000000
O		3.41806906		0.50001576		4.48199977		 0.00057511		 0.00029554		0.00000000
O		1.32793074		8.91648353		1.49399992		-0.00057511		-0.00029554		0.00000000
O		1.31796415		1.53300587		0.19900120		 0.00029466		 0.00024022		 0.00007344
O		3.42803566		7.88349390		5.77699897		-0.00029466		-0.00024022		-0.00007344
O		3.69096405		3.17524378		5.77699897		 0.00029466		-0.00024022		-0.00007344
O		1.05503576		6.24125694		0.19900120		-0.00029466		 0.00024022		 0.00007344
O		3.42803566		7.88349390		3.18700104		-0.00029466		-0.00024022		 0.00007344
O		1.31796415		1.53300587		2.78899865		 0.00029466		 0.00024022		-0.00007344
O		1.05503576		6.24125694		2.78899865		-0.00029466		 0.00024022		-0.00007344
O		3.69096405		3.17524378		3.18700104		 0.00029466		-0.00024022		 0.00007344
