# total energy = -20638.146197 eV

CRYSTAL
PRIMVEC
		4.74599980		0.00000000		0.00000000
		0.00000000		9.67099973		0.00000000
		0.00000000		0.00000000		5.97600159
PRIMECORD
   28 1
Si		2.02227004		0.90810720		1.49399992		-0.00008242		 0.00084421		0.00000000
Si		2.72372881		8.76289254		4.48199977		 0.00008242		-0.00084421		-0.00000000
Si		4.39527089		3.92739267		4.48199977		-0.00008242		-0.00084421		0.00000000
Si		0.35072891		5.74360659		1.49399992		 0.00008242		 0.00084421		0.00000000
Mg		0.00000000		0.00000000		0.00000000		0.00000000		0.00000000		-0.00000000
Mg		2.37299990		4.83549987		0.00000000		0.00000000		0.00000000		0.00000000
Mg		0.00000000		0.00000000		2.98799984		0.00000000		0.00000000		0.00000000
Mg		2.37299990		4.83549987		2.98799984		0.00000000		0.00000000		-0.00000000
Mg		4.70518373		2.68080077		1.49399992		-0.00038969		-0.00033008		0.00000000
Mg		0.04081607		6.99019849		4.48199977		 0.00038969		 0.00033008		0.00000000
Mg		2.33218383		2.15469910		4.48199977		-0.00038969		 0.00033008		0.00000000
Mg		2.41381503		7.51630064		1.49399992		 0.00038969		-0.00033008		0.00000000
O		3.63590997		0.88876487		1.49399992		-0.00028695		 0.00066859		-0.00000000
O		1.11008888		8.78223486		4.48199977		 0.00028695		-0.00066859		-0.00000000
O		1.26291102		3.94673499		4.48199977		-0.00028695		-0.00066859		0.00000000
O		3.48308878		5.72426474		1.49399992		 0.00028695		 0.00066859		0.00000000
O		1.04506916		4.32196987		1.49399992		 0.00054886		-0.00075151		0.00000000
O		3.70093065		5.34902986		4.48199977		-0.00054886		 0.00075151		-0.00000000
O		3.41806906		0.51352999		4.48199977		 0.00054886		 0.00075151		-0.00000000
O		1.32793074		9.15746974		1.49399992		-0.00054886		-0.00075151		0.00000000
O		1.31796415		1.57443892		0.19900120		 0.00017850		 0.00020812		 0.00003090
O		3.42803566		8.09656081		5.77699897		-0.00017850		-0.00020812		-0.00003090
O		3.69096405		3.26106094		5.77699897		 0.00017850		-0.00020812		-0.00003090
O		1.05503576		6.40993879		0.19900120		-0.00017850		 0.00020812		 0.00003090
O		3.42803566		8.09656081		3.18700104		-0.00017850		-0.00020812		 0.00003090
O		1.31796415		1.57443892		2.78899865		 0.00017850		 0.00020812		-0.00003090
O		1.05503576		6.40993879		2.78899865		-0.00017850		 0.00020812		-0.00003090
O		3.69096405		3.26106094		3.18700104		 0.00017850		-0.00020812		 0.00003090
