# total energy = -35730.801129 eV

CRYSTAL
PRIMVEC
		7.86030040		0.00000000		0.31441170
		-3.93014626		6.80721629		-0.15720585
		0.38292180		0.00000000		9.57299772
PRIMECORD
   46 1
Mg		1.28625679		3.09524270		3.73784915		-0.00923693		 0.00885567		-0.00707804
Mg		0.82800063		6.24562387		3.71951764		 0.00699804		-0.00362175		-0.00138266
Mg		-1.67118063		4.27357229		3.61955064		-0.00594007		-0.00201479		-0.00577247
Mg		3.13073831		3.71197673		8.59046902		-0.00044271		-0.00025037		-0.00492601
Mg		3.58899289		0.56159477		8.60879974		-0.00186553		 0.00727228		 0.00204438
Mg		6.08817573		2.53364714		8.70876674		-0.00398153		 0.00070885		 0.00356331
Mg		0.85512384		1.65960023		1.11135584		 0.00031030		 0.00474309		 0.00776422
Mg		2.13006533		6.68060516		1.16235334		-0.00351197		-0.01165191		 0.00325708
Mg		-2.85572404		5.27423426		0.96292202		 0.00200398		 0.00621034		-0.00044817
Mg		3.35279629		5.14761999		5.99010379		-0.00201121		 0.00407634		 0.00277520
Mg		2.07785480		0.12661427		5.93910708		-0.00126316		-0.00270276		-0.00266327
Mg		7.06364417		1.53298596		6.13853840		-0.00150070		 0.00082608		-0.00109465
Mg		0.03940215		4.53814603		0.98506174		 0.00128041		 0.00213580		 0.00644356
Mg		4.16101168		2.26907341		5.92876803		 0.00109886		 0.00225224		 0.00894965
Si		3.99681715		2.26907341		1.82386477		 0.00143823		 0.00312033		 0.00043546
Si		0.25812628		4.53814603		6.45315935		 0.00612204		-0.00251350		 0.00080557
Si		0.15385705		0.00000000		3.84643085		-0.00259917		 0.00149361		-0.00050776
Si		0.34531716		0.00000000		8.63293207		 0.00391988		 0.00156819		-0.00354637
O		1.83888995		0.18651832		9.40185386		 0.00350099		-0.00746036		 0.00649628
O		7.33992103		1.17560697		9.62189642		-0.00210399		-0.00432344		-0.00346742
O		3.73282869		5.44509493		9.47761222		 0.00739719		 0.00265823		-0.00030635
O		2.64726031		6.62070190		4.65534793		 0.00012305		 0.00084624		 0.00782489
O		-2.85377077		5.63161325		4.43530615		-0.00519106		 0.00352280		 0.00378038
O		0.75332078		1.36212529		4.57959035		 0.01130686		-0.00722861		 0.00556942
O		3.54340681		0.67255297		4.77147840		 0.00001894		 0.00110291		 0.00152269
O		5.78437842		2.57176704		4.86111736		-0.00059592		 0.01093724		 0.00762104
O		3.01912483		3.56289864		4.75050687		-0.00343165		-0.01130540		-0.00126614
O		0.94917595		6.13466568		9.44655101		-0.00208458		 0.00168421		 0.00092835
O		-1.29179487		4.23545239		9.35691205		 0.00592231		 0.00441203		 0.00246183
O		1.47345793		3.24432079		9.46752175		 0.00105246		 0.00202007		-0.00039523
O		2.49762604		2.00608794		2.31728692		 0.00021674		-0.00175433		-0.00341723
O		5.00742012		1.08302905		2.41767872		-0.00267043		-0.00248446		-0.00153094
O		4.55191570		3.71810402		2.39945892		-0.00420030		 0.00219822		-0.01062014
O		1.80165897		4.80113228		7.06829018		 0.00463512		 0.00022322		-0.00283355
O		-0.70813511		5.72419117		6.96789917		 0.00052798		-0.01092488		-0.00263092
O		-0.25263068		3.08911620		6.98611897		 0.00169014		-0.00223400		-0.00199869
O		-0.28507720		2.97271276		2.28052873		-0.00430968		 0.00066262		-0.00508380
O		1.63598002		4.99445678		2.35737190		 0.00170673		 0.00065405		-0.00261160
O		-1.07542993		5.64726933		2.24891528		 0.00428855		-0.00231464		 0.00085159
O		4.59033532		3.83450667		7.25438685		 0.00054921		-0.00674677		-0.00337773
O		2.66927809		1.81276266		7.17754525		 0.00241682		 0.00395059		 0.00411314
O		5.38068883		1.15995010		7.28600109		-0.00878291		 0.01327360		-0.00858783
O		3.93015020		2.26907341		0.15720585		 0.00037038		 0.00307331		-0.00013646
O		0.19146011		4.53814603		4.78650043		 0.00378326		-0.00854349		 0.00205675
O		0.08895221		0.00000000		2.22380829		 0.00048959		-0.00051506		 0.00084759
O		0.28041232		0.00000000		7.01030793		-0.00744460		-0.00589167		-0.00442899
