# total energy = -24716.4476356 eV

CRYSTAL
PRIMVEC
		9.23360309		0.00000000		0.00000000
		0.00000000		8.63936718		0.00000000
		0.00000000		0.00000000		5.27614459
PRIMECORD
   40 1
Mg		0.00000000		7.83246250		1.31903661		 0.00000001		 0.00012512		-0.00000000
Mg		0.00000000		0.80690098		3.95710890		 0.00000002		-0.00012514		0.00000000
Mg		4.61680062		5.12658271		3.95710890		 0.00000002		-0.00012475		 0.00000004
Mg		4.61680154		3.51278076		1.31903661		-0.00000003		 0.00012476		-0.00000002
Mg		0.00000000		2.30330700		1.31903661		-0.00000006		-0.00009382		-0.00000004
Mg		0.00000000		6.33605554		3.95710890		 0.00000001		 0.00009382		 0.00000004
Mg		4.61680062		2.01637381		3.95710890		-0.00000002		 0.00009347		-0.00000002
Mg		4.61680154		6.62298874		1.31903661		-0.00000000		-0.00009348		 0.00000004
Si		2.69719729		0.79778171		0.35528503		-0.00024349		 0.00040008		 0.00041866
Si		6.53640395		7.84158176		4.92086049		 0.00024353		-0.00040009		-0.00041870
Si		1.91960426		3.52190002		2.99335825		 0.00023982		-0.00040265		 0.00041830
Si		7.31399790		5.11746252		2.28278727		-0.00023983		 0.00040271		-0.00041825
Si		6.53640395		0.79778171		2.28278727		 0.00024384		 0.00039989		-0.00041870
Si		2.69719821		7.84158176		2.99335825		-0.00024344		-0.00040012		 0.00041866
Si		7.31399790		3.52190002		4.92085956		-0.00023939		-0.00040297		-0.00041822
Si		1.91960426		5.11746252		0.35528595		 0.00023969		 0.00040266		 0.00041825
O		1.08406950		0.81268838		0.42284214		-0.00060199		 0.00016658		 0.00019684
O		8.14953267		7.82667416		4.85330430		 0.00060193		-0.00016654		-0.00019686
O		3.53273112		3.50699243		3.06091443		 0.00060396		-0.00016631		 0.00019675
O		5.70087104		5.13237012		2.21523108		-0.00060390		 0.00016620		-0.00019676
O		8.14953267		0.81268838		2.21523108		 0.00060174		 0.00016661		-0.00019678
O		1.08406950		7.82667509		3.06091443		-0.00060201		-0.00016652		 0.00019678
O		5.70087104		3.50699243		4.85330337		-0.00060410		-0.00016633		-0.00019676
O		3.53273112		5.13237012		0.42284214		 0.00060395		 0.00016628		 0.00019678
O		3.46685246		2.19125800		0.37818334		 0.00036544		 0.00034703		 0.00017904
O		5.76674970		6.44810547		4.89796218		-0.00036537		-0.00034697		-0.00017905
O		1.14994816		2.12842280		3.01625656		-0.00036384		-0.00034450		 0.00017892
O		8.08365400		6.51093974		2.25988988		 0.00036387		 0.00034448		-0.00017892
O		5.76674970		2.19125708		2.25988896		-0.00036547		 0.00034709		-0.00017906
O		3.46685338		6.44810639		3.01625656		 0.00036533		-0.00034678		 0.00017902
O		8.08365400		2.12842280		4.89796218		 0.00036355		-0.00034394		-0.00017886
O		1.14994816		6.51093974		0.37818334		-0.00036376		 0.00034440		 0.00017888
O		3.25448227		8.40839682		1.52294129		-0.00008971		 0.00016400		 0.00036706
O		5.97911989		0.23096666		3.75320515		 0.00008965		-0.00016407		-0.00036691
O		1.36231834		4.55064839		4.16101358		 0.00009009		-0.00016387		 0.00036732
O		7.87128382		4.08871508		1.11513193		-0.00009009		 0.00016376		-0.00036744
O		5.97911989		8.40839682		1.11513193		 0.00008974		 0.00016408		-0.00036697
O		3.25448227		0.23096666		4.16101358		-0.00008967		-0.00016413		 0.00036691
O		7.87128382		4.55064747		3.75320423		-0.00009013		-0.00016388		-0.00036725
O		1.36231834		4.08871508		1.52294129		 0.00009016		 0.00016387		 0.00036729
