# total energy = -24715.7623171 eV

CRYSTAL
PRIMVEC
		9.14974554		-0.00009273		0.00001855
		-0.00009273		8.49643008		0.00000000
		0.00000927		0.00000000		5.22326880
PRIMECORD
   40 1
Mg		-0.00008439		7.72908672		1.30581952		 0.00000902		 0.00009634		-0.00000982
Mg		0.00000000		0.76734243		3.91744743		-0.00000434		-0.00010358		 0.00001139
Mg		4.57482826		5.01550184		3.91746227		-0.00000535		-0.00008528		-0.00001130
Mg		4.57483568		3.48082810		1.30582230		 0.00000773		 0.00008995		 0.00000920
Mg		-0.00001669		2.29757895		1.30582508		-0.00001905		-0.00020448		-0.00002834
Mg		-0.00006584		6.19884835		3.91744279		 0.00002158		 0.00020410		 0.00002988
Mg		4.57485330		1.95059529		3.91746783		 0.00002215		 0.00019150		-0.00003095
Mg		4.57481064		6.54573557		1.30581766		-0.00001900		-0.00019078		 0.00002756
Si		2.66849395		0.80025858		0.38898383		-0.00035360		-0.00040521		 0.00017951
Si		6.48119595		7.69610844		4.83429610		 0.00027130		 0.00028414		-0.00016356
Si		1.90636584		3.44793420		3.00062472		 0.00024520		 0.00029954		 0.00016631
Si		7.24328512		5.04837347		2.22265613		-0.00019715		-0.00021966		-0.00015574
Si		6.48134803		0.80009259		2.22264408		-0.00002442		 0.00005206		-0.00009929
Si		2.66831869		7.69625125		3.00064142		 0.00001874		-0.00009170		 0.00009537
Si		7.24323690		3.44798428		4.83427384		 0.00005789		-0.00008868		-0.00009623
Si		1.90645764		5.04831042		0.38901536		-0.00015573		 0.00021615		 0.00007939
O		1.06447893		0.81164793		0.43173514		 0.00008939		-0.00020651		-0.00017841
O		8.08517481		7.68467922		4.79154943		-0.00005231		 0.00022096		 0.00017574
O		3.51034191		3.43651518		3.04337881		-0.00003853		 0.00021589		-0.00017899
O		5.63933223		5.05981846		2.17990575		 0.00000861		-0.00022370		 0.00017638
O		8.08519335		0.81158023		2.17991317		 0.00012676		-0.00023190		 0.00018430
O		1.06447059		7.68474784		3.04337047		-0.00012459		 0.00024279		-0.00018256
O		5.63939714		3.43648644		4.79153737		-0.00014613		 0.00023762		 0.00018599
O		3.51025381		5.05984813		0.43174534		 0.00019366		-0.00024952		-0.00018207
O		3.40989183		2.20041993		0.37919690		 0.00011016		 0.00016770		 0.00004354
O		5.73975913		6.29588404		4.84408581		-0.00006212		-0.00007587		-0.00003790
O		1.16492252		2.04772000		2.99081832		-0.00005381		-0.00006960		 0.00003658
O		7.98475254		6.44862848		2.23246439		 0.00002043		 0.00001407		-0.00003374
O		5.73975727		2.20049689		2.23245234		 0.00008551		-0.00019994		-0.00003864
O		3.40991037		6.29582933		2.99083223		-0.00009395		 0.00021551		 0.00003753
O		7.98484064		2.04756421		4.84409972		-0.00010899		 0.00023315		-0.00003556
O		1.16480846		6.44879632		0.37918670		 0.00016342		-0.00033279		 0.00002994
O		3.24886179		8.30087685		1.56312577		 0.00001308		-0.00002620		 0.00000149
O		5.90080401		0.19544659		3.66016714		-0.00001521		 0.00005394		-0.00003028
O		1.32587930		4.44369316		4.17477408		-0.00000344		 0.00003574		 0.00001627
O		7.82378371		4.05264512		1.04851698		 0.00001065		-0.00005928		-0.00003599
O		5.90071684		8.30087407		1.04855221		-0.00003414		-0.00011679		-0.00009833
O		3.24894617		0.19545123		4.17472679		 0.00004031		 0.00013737		 0.00011607
O		7.82377907		4.44360136		3.66016992		 0.00002799		 0.00012094		-0.00010509
O		1.32588672		4.05273877		1.56310722		-0.00003175		-0.00014802		 0.00013036
