# total energy = -24716.1482951 eV

CRYSTAL
PRIMVEC
		9.18956466		0.00001855		0.00000000
		0.00001855		8.56613672		0.00000000
		0.00000000		0.00000000		5.24802824
PRIMECORD
   40 1
Mg		0.00001762		7.78106950		1.31200752		-0.00000040		 0.00015962		 0.00000304
Mg		0.00000000		0.78506537		3.93602443		 0.00000310		-0.00015645		-0.00000248
Mg		4.59479160		5.06813930		3.93602257		 0.00000179		-0.00015683		 0.00000155
Mg		4.59478975		3.49801319		1.31200845		-0.00000101		 0.00016503		-0.00000256
Mg		0.00000000		2.30232961		1.31200660		 0.00000449		-0.00023773		 0.00000604
Mg		0.00001484		6.26380619		3.93602536		-0.00000336		 0.00023662		-0.00000567
Mg		4.59478604		1.98074988		3.93602165		-0.00000390		 0.00023972		 0.00000540
Mg		4.59479439		6.58540539		1.31200938		 0.00000539		-0.00024006		-0.00000729
Si		2.68173979		0.80025766		0.37624338		-0.00000764		-0.00021906		 0.00008773
Si		6.50787680		7.76593100		4.87178301		-0.00011025		 0.00010929		-0.00007182
Si		1.91305645		3.48283018		3.00026307		 0.00000054		 0.00019133		 0.00008280
Si		7.27654160		5.08333065		2.24776888		-0.00005744		-0.00021256		-0.00008681
Si		6.50781096		0.80028548		2.24777537		 0.00006077		-0.00028831		-0.00010100
Si		2.68174906		7.76588927		3.00025843		 0.00001022		 0.00022327		 0.00009156
Si		7.27654067		3.48281720		4.87178764		-0.00006913		 0.00027990		-0.00009739
Si		1.91302863		5.08333900		0.37624246		 0.00010997		-0.00028485		 0.00009961
O		1.07323747		0.81258545		0.42985175		-0.00002300		-0.00003153		-0.00017260
O		8.11632348		7.75356982		4.81818020		 0.00008760		 0.00003110		 0.00016905
O		3.52155228		3.47049497		3.05386866		 0.00002233		 0.00002446		-0.00017194
O		5.66801888		5.09566308		2.19416144		 0.00001127		-0.00003380		 0.00017329
O		8.11633739		0.81260028		2.19416330		-0.00001026		-0.00002775		 0.00017150
O		1.07325694		7.75355591		3.05386680		-0.00003340		 0.00002571		-0.00016837
O		5.66801424		3.47050146		4.81817835		 0.00001490		 0.00001857		 0.00017109
O		3.52157546		5.09565752		0.42985268		-0.00004454		-0.00002988		-0.00017169
O		3.43727280		2.19723644		0.38047845		-0.00007010		-0.00010979		-0.00000571
O		5.75229093		6.36889009		4.86755072		 0.00012912		 0.00020702		 0.00001103
O		1.15751324		2.08583285		3.00449536		 0.00008215		 0.00013292		-0.00000745
O		8.03206163		6.48031407		2.24353567		-0.00006024		-0.00010153		 0.00000643
O		5.75230762		2.19722716		2.24353660		 0.00004155		-0.00005740		 0.00000563
O		3.43728486		6.36891142		3.00449536		-0.00007851		 0.00011325		-0.00000817
O		8.03204772		2.08586716		4.86755164		-0.00004567		 0.00006390		 0.00000608
O		1.15753827		6.48028347		0.38047938		 0.00003037		-0.00004730		-0.00000612
O		3.25142305		8.35511116		1.54773504		-0.00002427		-0.00009966		 0.00008952
O		5.93816016		0.21104040		3.70029877		 0.00002021		 0.00011507		-0.00010089
O		1.34339174		4.49409764		4.17175473		 0.00001157		 0.00010522		 0.00008881
O		7.84618961		4.07206041		1.07627908		-0.00001178		-0.00011147		-0.00009772
O		5.93817500		8.35511208		1.07627537		 0.00003043		-0.00008320		-0.00007388
O		3.25140450		0.21103948		4.17175380		-0.00002445		 0.00009441		 0.00007891
O		7.84619147		4.49411711		3.70028578		-0.00001535		 0.00008635		-0.00006884
O		1.34338896		4.07204094		1.54774153		 0.00001696		-0.00009362		 0.00007933
