# total energy = -49447.8931266 eV	

CRYSTAL	
PRIMVEC	
		14.37459962		0.00000000		0.00000000	
		0.00000000		5.10900582		0.00000000	
		0.00000000		0.00000000		8.73300051	
PRIMCOORD
   70 1	
Mg		2.48824319		1.67524028		0.04628477		 0.00004623		 0.00042432		-0.00020215	
Mg		11.88635643		3.43375836		0.04628477		-0.00004623		-0.00042432		-0.00020215	
Mg		9.67554301		0.87925832		4.41278503		 0.00004623		-0.00042432		-0.00020215	
Mg		4.69905662		4.22974031		4.41278503		-0.00004623		 0.00042432		-0.00020215	
Mg		2.55149143		4.27010131		1.53002232		-0.00051944		-0.00024142		 0.00034076	
Mg		11.82310819		0.83889732		1.53002232		 0.00051944		 0.00024142		 0.00034076	
Mg		9.73879125		3.39339736		5.89652114		-0.00051944		 0.00024142		 0.00034076	
Mg		4.63580838		1.71560128		5.89652114		 0.00051944		-0.00024142		 0.00034076	
Mg		4.65737028		1.76822525		2.83123839		 0.00043207		-0.00060133		-0.00009965	
Mg		9.71722935		3.34077482		2.83123839		-0.00043207		 0.00060133		-0.00009965	
Mg		11.84467009		0.78627479		7.19773865		 0.00043207		 0.00060133		-0.00009965	
Mg		2.52992953		4.32272529		7.19773865		-0.00043207		-0.00060133		-0.00009965	
Mg		0.00000000		2.55450004		7.23616339		0.00000000		0.00000000		-0.00001354	
Mg		7.18729981		0.00000000		2.86966457		0.00000000		0.00000000		-0.00001354	
Mg		0.00000000		2.55450004		1.63307095		0.00000000		0.00000000		-0.00003302	
Mg		7.18729981		0.00000000		5.99957121		0.00000000		0.00000000		-0.00003302	
Mg		0.00000000		0.00000000		5.78561248		0.00000000		0.00000000		-0.00076010	
Mg		7.18729981		2.55450004		1.41911366		0.00000000		0.00000000		-0.00076010	
Mg		0.00000000		0.00000000		3.01725146		0.00000000		0.00000000		 0.00004970	
Mg		7.18729981		2.55450004		7.38375028		0.00000000		0.00000000		 0.00004970	
Si		0.00000000		0.00000000		0.06724438		0.00000000		0.00000000		-0.00009417	
Si		7.18729981		2.55450004		4.43374319		0.00000000		0.00000000		-0.00009417	
Si		5.41347422		0.07203687		0.04453826		-0.00018601		-0.00010318		-0.00027447	
Si		8.96112541		5.03696321		0.04453826		 0.00018601		 0.00010318		-0.00027447	
Si		12.60077403		2.48246317		4.41103851		-0.00018601		 0.00010318		-0.00027447	
Si		1.77382559		2.62653691		4.41103851		 0.00018601		-0.00010318		-0.00027447	
O		5.96977122		3.62125920		8.67710919		-0.00021983		-0.00014782		 0.00011714	
O		8.40482840		1.48774087		8.67710919		 0.00021983		 0.00014782		 0.00011714	
O		13.15707104		4.04224091		4.31060894		-0.00021983		 0.00014782		 0.00011714	
O		1.21752859		1.06675916		4.31060894		 0.00021983		-0.00014782		 0.00011714	
O		1.12553115		3.54104750		0.04366428		 0.00001809		-0.00014043		-0.00015318	
O		13.24906847		1.56795258		0.04366428		-0.00001809		 0.00014043		-0.00015318	
O		8.31283096		4.12245118		4.41016454		 0.00001809		 0.00014043		-0.00015318	
O		6.06176866		0.98654746		4.41016454		-0.00001809		-0.00014043		-0.00015318	
O		3.58646261		0.11239787		3.01375843		 0.00024088		-0.00072040		 0.00015114	
O		10.78813702		4.99660220		3.01375843		-0.00024088		 0.00072040		 0.00015114	
O		10.77376242		2.44210217		7.38025725		 0.00024088		 0.00072040		 0.00015114	
O		3.60083721		2.66689791		7.38025725		-0.00024088		-0.00072040		 0.00015114	
O		3.66839782		2.61580770		1.41474666		-0.00004607		-0.00029038		 0.00040436	
O		10.70620180		2.49319237		1.41474666		 0.00004607		 0.00029038		 0.00040436	
O		10.85569764		5.04769241		5.78124547		-0.00004607		 0.00029038		 0.00040436	
O		3.51890199		0.06130767		5.78124547		 0.00004607		-0.00029038		 0.00040436	
O		1.09246957		0.73569632		1.33702176		-0.00008720		-0.00030135		-0.00039685	
O		13.28213005		4.37330375		1.33702176		 0.00008720		 0.00030135		-0.00039685	
O		8.27976938		1.81880372		5.70352201		-0.00008720		 0.00030135		-0.00039685	
O		6.09483024		3.29019636		5.70352201		 0.00008720		-0.00030135		-0.00039685	
O		6.17820292		3.30552256		3.16047278		-0.00066715		 0.00069185		 0.00065676	
O		8.19639671		1.80347752		3.16047278		 0.00066715		-0.00069185		 0.00065676	
O		13.36550417		4.35797755		7.52697160		-0.00066715		-0.00069185		 0.00065676	
O		1.00909689		0.75102252		7.52697160		 0.00066715		 0.00069185		 0.00065676	
O		5.95827154		0.78167635		1.39640754		 0.00011498		-0.00035321		-0.00009408	
O		8.41632808		4.32732228		1.39640754		-0.00011498		 0.00035321		-0.00009408	
O		13.14557136		1.77282225		5.76290636		 0.00011498		 0.00035321		-0.00009408	
O		1.22902827		3.33617639		5.76290636		-0.00011498		-0.00035321		-0.00009408	
O		1.27790191		3.49966446		3.03821106		 0.00008714		-0.00010766		-0.00029626	
O		13.09669915		1.60933561		3.03821106		-0.00008714		 0.00010766		-0.00029626	
O		8.46520172		4.16383421		7.40471132		 0.00008714		 0.00010766		-0.00029626	
O		5.90939791		0.94516442		7.40471132		-0.00008714		-0.00010766		-0.00029626	
O		3.73452098		0.02452307		0.06113086		 0.00004427		-0.00024791		 0.00004886	
O		10.64008008		5.08447701		0.06113086		-0.00004427		 0.00024791		 0.00004886	
O		10.92182079		2.52997697		4.42763111		 0.00004427		 0.00024791		 0.00004886	
O		3.45277883		2.57902310		4.42763111		-0.00004427		-0.00024791		 0.00004886	
H		4.31237989		3.06540062		0.87330005		-0.00046872		-0.00019678		 0.00043088	
H		10.06221974		2.04359945		0.87330005		 0.00046872		 0.00019678		 0.00043088	
H		11.49967970		4.59809949		5.23980031		-0.00046872		 0.00019678		 0.00043088	
H		2.87491992		0.51090058		5.23980031		 0.00046872		-0.00019678		 0.00043088	
H		3.88114190		0.91961932		3.92985023		 0.00042148		-0.00076319		-0.00020771	
H		10.49345773		4.18937931		3.92985023		-0.00042148		 0.00076319		-0.00020771	
H		11.06844171		1.63487928		8.29635048		 0.00042148		 0.00076319		-0.00020771	
H		3.30615791		3.47411936		8.29635048		-0.00042148		-0.00076319		-0.00020771	
