# total energy = -49441.0118189 eV	

CRYSTAL	
PRIMVEC	
		12.62159961		0.00000000		0.00000000	
		0.00000000		5.10899633		0.00000000	
		0.00000000		0.00000000		8.73299836	
PRIMCOORD
   70 1	
Mg		2.18479889		1.67524093		0.04628467		-0.00026705		 0.00014509		-0.00040698	
Mg		10.43680071		3.43375918		0.04628467		 0.00026705		-0.00014509		-0.00040698	
Mg		8.49559869		0.87925849		4.41278511		-0.00026705		-0.00014509		-0.00040698	
Mg		4.12600091		4.22974036		4.41278511		 0.00026705		 0.00014509		-0.00040698	
Mg		2.24033393		4.27010171		1.53002186		-0.00047584		-0.00022176		-0.00077662	
Mg		10.38126568		0.83889840		1.53002186		 0.00047584		 0.00022176		-0.00077662	
Mg		8.55113373		3.39339783		5.89652104		-0.00047584		 0.00022176		-0.00077662	
Mg		4.07046587		1.71560229		5.89652104		 0.00047584		-0.00022176		-0.00077662	
Mg		4.08939827		1.76822552		2.83123936		 0.00001000		-0.00032345		 0.00011130	
Mg		8.53220133		3.34077460		2.83123936		-0.00001000		 0.00032345		 0.00011130	
Mg		10.40019807		0.78627517		7.19773854		 0.00001000		 0.00032345		 0.00011130	
Mg		2.22140153		4.32272495		7.19773854		-0.00001000		-0.00032345		 0.00011130	
Mg		0.00000000		2.55449943		7.23616374		0.00000000		0.00000000		 0.00050773	
Mg		6.31079980		0.00000000		2.86966329		0.00000000		0.00000000		 0.00050773	
Mg		0.00000000		2.55449943		1.63307091		0.00000000		0.00000000		-0.00085915	
Mg		6.31079980		0.00000000		5.99957135		0.00000000		0.00000000		-0.00085915	
Mg		0.00000000		0.00000000		5.78561252		0.00000000		0.00000000		-0.00050282	
Mg		6.31079980		2.55449943		1.41911334		0.00000000		0.00000000		-0.00050282	
Mg		0.00000000		0.00000000		3.01725144		0.00000000		0.00000000		 0.00023661	
Mg		6.31079980		2.55449943		7.38375063		0.00000000		0.00000000		 0.00023661	
Si		0.00000000		0.00000000		0.06724410		0.00000000		0.00000000		-0.00017226	
Si		6.31079980		2.55449943		4.43374328		0.00000000		0.00000000		-0.00017226	
Si		4.75329441		0.07203652		0.04453784		-0.00022798		 0.00011764		 0.00033172	
Si		7.86830519		5.03696234		0.04453784		 0.00022798		-0.00011764		 0.00033172	
Si		11.06409421		2.48246291		4.41103828		-0.00022798		-0.00011764		 0.00033172	
Si		1.55750539		2.62653721		4.41103828		 0.00022798		 0.00011764		 0.00033172	
O		5.24175032		3.62125936		8.67710866		-0.00016197		-0.00014628		 0.00033020	
O		7.37984929		1.48774076		8.67710866		 0.00016197		 0.00014628		 0.00033020	
O		11.55255012		4.04224145		4.31060948		-0.00016197		 0.00014628		 0.00033020	
O		1.06904949		1.06675867		4.31060948		 0.00016197		-0.00014628		 0.00033020	
O		0.98827125		3.54104783		0.04366442		-0.00003723		-0.00033255		-0.00017393	
O		11.63332836		1.56795229		0.04366442		 0.00003723		 0.00033255		-0.00017393	
O		7.29907105		4.12245172		4.41016487		-0.00003723		 0.00033255		-0.00017393	
O		5.32252855		0.98654840		4.41016487		 0.00003723		-0.00033255		-0.00017393	
O		3.14908910		0.11239787		3.01375779		 0.00004570		 0.00006871		 0.00040997	
O		9.47250924		4.99660225		3.01375779		-0.00004570		-0.00006871		 0.00040997	
O		9.45989017		2.44210156		7.38025823		 0.00004570		-0.00006871		 0.00040997	
O		3.16171070		2.66689730		7.38025823		-0.00004570		 0.00006871		 0.00040997	
O		3.22103222		2.61580759		1.41474626		-0.00003029		-0.00018430		 0.00031028	
O		9.40056612		2.49319253		1.41474626		 0.00003029		 0.00018430		 0.00031028	
O		9.53183328		5.04769196		5.78124545		-0.00003029		 0.00018430		 0.00031028	
O		3.08976758		0.06130816		5.78124545		 0.00003029		-0.00018430		 0.00031028	
O		0.95924157		0.73569537		1.33702245		-0.00029845		 0.00030504		 0.00014781	
O		11.66235804		4.37330348		1.33702245		 0.00029845		-0.00030504		 0.00014781	
O		7.27004137		1.81880406		5.70352163		-0.00029845		-0.00030504		 0.00014781	
O		5.35155823		3.29019606		5.70352163		 0.00029845		 0.00030504		 0.00014781	
O		5.42476351		3.30552247		3.16047252		 0.00044383		-0.00031676		-0.00022137	
O		7.19683609		1.80347639		3.16047252		-0.00044383		 0.00031676		-0.00022137	
O		11.73556331		4.35797708		7.52697170		 0.00044383		 0.00031676		-0.00022137	
O		0.88603629		0.75102304		7.52697170		-0.00044383		-0.00031676		-0.00022137	
O		5.23165304		0.78167712		1.39640708		 0.00002276		 0.00084341		-0.00015809	
O		7.38994657		4.32732300		1.39640708		-0.00002276		-0.00084341		-0.00015809	
O		11.54245284		1.77282357		5.76290626		 0.00002276		-0.00084341		-0.00015809	
O		1.07914677		3.33617655		5.76290626		-0.00002276		 0.00084341		-0.00015809	
O		1.12206020		3.49966539		3.03821087		 0.00001599		-0.00051312		-0.00027594	
O		11.49953940		1.60933473		3.03821087		-0.00001599		 0.00051312		-0.00027594	
O		7.43286001		4.16383542		7.40471132		 0.00001599		 0.00051312		-0.00027594	
O		5.18873960		0.94516470		7.40471132		-0.00001599		-0.00051312		-0.00027594	
O		3.27909158		0.02452251		0.06113146		 0.00006994		-0.00006743		-0.00019312	
O		9.34250929		5.08447635		0.06113146		-0.00006994		 0.00006743		-0.00019312	
O		9.58989012		2.52997692		4.42763064		 0.00006994		 0.00006743		-0.00019312	
O		3.03170949		2.57902320		4.42763064		-0.00006994		-0.00006743		-0.00019312	
H		3.78647988		3.06540032		0.87329984		-0.00011280		-0.00081047		 0.00043393	
H		8.83511972		2.04359979		0.87329984		 0.00011280		 0.00081047		 0.00043393	
H		10.09727968		4.59810048		5.23980028		-0.00011280		 0.00081047		 0.00043393	
H		2.52431992		0.51089963		5.23980028		 0.00011280		-0.00081047		 0.00043393	
H		3.40783189		0.91961984		3.92984989		 0.00006033		-0.00033185		 0.00052579	
H		9.21376771		4.18938027		3.92984989		-0.00006033		 0.00033185		 0.00052579	
H		9.71863170		1.63487958		8.29635034		 0.00006033		 0.00033185		 0.00052579	
H		2.90296791		3.47411927		8.29635034		-0.00006033		-0.00033185		 0.00052579	
