# total energy = -2069.11206396 eV	

CRYSTAL	
PRIMVEC	
		2.93802111		-0.11752073		0.00000000	
		-1.57078707		2.60315996		0.00000000	
		0.00000000		0.00000000		2.67968016	
PRIMCOORD
   2 1	
Mg		0.00000000		0.00000000		0.00000000		-0.00012602		 0.00069448		0.00000000	
O		-0.06785111		1.69626708		1.33984008		 0.00012602		-0.00069448		0.00000000	
