# total energy = -41273.8331489 eV

CRYSTAL
PRIMVEC
		7.97986481		0.00000000		0.00000000
		0.00000000		7.97986481		0.00000000
		0.00000000		0.00000000		7.97986481
PRIMECORD
   56 1
Si		0.99748269		0.99748269		0.99748269		 0.00000024		 0.00000022		 0.00000012
Si		6.98237968		6.98237968		6.98237968		-0.00000013		-0.00000002		-0.00000030
Si		4.98741429		0.99748269		4.98741429		 0.00000022		 0.00000014		-0.00000017
Si		2.99244890		6.98237968		2.99244808		-0.00000012		 0.00000008		 0.00000021
Si		0.99748188		4.98741429		4.98741429		 0.00000011		-0.00000025		-0.00000001
Si		6.98237968		2.99244808		2.99244808		-0.00000014		 0.00000003		 0.00000027
Si		4.98741429		4.98741347		0.99748269		 0.00000025		-0.00000000		 0.00000035
Si		2.99244890		2.99244808		6.98238049		-0.00000043		-0.00000008		-0.00000040
Mg		3.98992997		3.98993078		3.98993240		 0.00000062		 0.00000024		-0.00000032
Mg		1.99496539		5.98489779		0.00000000		 0.00000017		-0.00000034		 0.00000008
Mg		5.98489698		1.99496458		0.00000000		-0.00000012		 0.00000021		 0.00000014
Mg		5.98489779		0.00000000		1.99496620		-0.00000052		-0.00000009		-0.00000020
Mg		1.99496539		0.00000000		5.98489617		 0.00000032		 0.00000008		 0.00000036
Mg		0.00000000		1.99496539		5.98489617		-0.00000040		 0.00000050		 0.00000049
Mg		0.00000000		5.98489779		1.99496620		-0.00000065		-0.00000066		-0.00000031
Mg		3.98993078		0.00000000		0.00000000		 0.00000054		-0.00000004		 0.00000005
Mg		1.99496539		1.99496539		3.98993159		 0.00000009		 0.00000021		-0.00000027
Mg		5.98489698		5.98489698		3.98993159		-0.00000024		-0.00000026		-0.00000003
Mg		5.98489698		3.98993078		5.98489617		 0.00000002		 0.00000034		 0.00000030
Mg		1.99496539		3.98993159		1.99496701		 0.00000007		-0.00000012		-0.00000038
Mg		0.00000000		3.98993159		0.00000000		-0.00000031		-0.00000002		 0.00000010
Mg		3.98993078		1.99496458		1.99496620		 0.00000047		 0.00000029		-0.00000035
Mg		3.98993078		5.98489698		5.98489617		 0.00000077		-0.00000014		 0.00000030
Mg		0.00000000		0.00000000		3.98993078		-0.00000056		-0.00000004		 0.00000004
O		1.95451074		1.95451074		1.95451155		 0.00003318		 0.00003317		 0.00003306
O		6.02535082		6.02535163		6.02535163		-0.00003289		-0.00003303		-0.00003313
O		4.03038624		0.04045465		5.94444233		-0.00003339		-0.00003314		 0.00003296
O		3.94947694		7.93940772		2.03542004		 0.00003297		 0.00003283		-0.00003303
O		0.04045465		5.94444233		4.03038624		-0.00003302		 0.00003316		-0.00003305
O		7.93940853		2.03542004		3.94947613		 0.00003291		-0.00003295		 0.00003293
O		5.94444233		4.03038543		0.04045465		 0.00003308		-0.00003273		-0.00003266
O		2.03542085		3.94947694		7.93940853		-0.00003314		 0.00003297		 0.00003294
O		7.93940853		3.94947694		2.03542004		 0.00003297		 0.00003311		-0.00003287
O		0.04045384		4.03038543		5.94444233		-0.00003247		-0.00003291		 0.00003291
O		3.94947775		2.03542004		7.93940772		 0.00003278		-0.00003358		 0.00003347
O		4.03038543		5.94444152		0.04045465		-0.00003304		 0.00003326		-0.00003268
O		2.03542004		7.93940772		3.94947613		-0.00003299		 0.00003314		 0.00003322
O		5.94444314		0.04045384		4.03038624		 0.00003285		-0.00003281		-0.00003312
O		1.95451074		5.94444233		5.94444152		 0.00003278		 0.00003321		 0.00003335
O		6.02535163		2.03542004		2.03542004		-0.00003314		-0.00003317		-0.00003290
O		4.03038543		4.03038543		1.95451155		-0.00003273		-0.00003255		 0.00003282
O		3.94947775		3.94947613		6.02535244		 0.00003271		 0.00003333		-0.00003345
O		0.04045384		1.95451155		0.04045465		-0.00003278		 0.00003289		-0.00003321
O		7.93940853		6.02535082		7.93940853		 0.00003300		-0.00003273		 0.00003286
O		7.93940772		7.93940772		6.02535082		 0.00003309		 0.00003256		-0.00003272
O		0.04045465		0.04045546		1.95451074		-0.00003304		-0.00003331		 0.00003305
O		3.94947694		6.02535163		3.94947694		 0.00003299		-0.00003298		 0.00003294
O		4.03038543		1.95451074		4.03038624		-0.00003291		 0.00003267		-0.00003299
O		5.94444233		1.95451074		5.94444233		 0.00003326		 0.00003293		 0.00003294
O		2.03542004		6.02535163		2.03542085		-0.00003281		-0.00003313		-0.00003333
O		1.95451074		4.03038543		4.03038624		 0.00003282		-0.00003305		-0.00003289
O		6.02535163		3.94947694		3.94947694		-0.00003282		 0.00003282		 0.00003262
O		6.02535163		7.93940772		7.93940772		-0.00003297		 0.00003291		 0.00003326
O		1.95451155		0.04045465		0.04045465		 0.00003292		-0.00003301		-0.00003328
O		5.94444314		5.94444233		1.95451074		 0.00003247		 0.00003275		 0.00003258
O		2.03542004		2.03542004		6.02535163		-0.00003288		-0.00003294		-0.00003267
