# total energy = -35730.5586065 eV	

CRYSTAL	
PRIMVEC	
		7.86030298		-1.25765198		0.00000000	
		-5.01930433		7.43604415		0.00000000	
		0.00000000		0.00000000		9.57299619	
PRIMCOORD
   46 1	
Mg		0.64332563		2.91307179		3.69230640		 0.00008041		 0.00016361		-0.00071767	
Mg		-0.31899135		6.13677505		3.69230640		-0.00059241		-0.00053959		-0.00032678	
Mg		-2.50264473		4.56459186		3.69230640		 0.00033586		-0.00079427		-0.00026724	
Mg		2.19766904		3.26532277		8.47880609		-0.00008041		-0.00016361		-0.00071767	
Mg		3.15998602		0.04162110		8.47880609		 0.00059241		 0.00053959		-0.00032678	
Mg		5.34364021		1.61380269		8.47880609		-0.00033586		 0.00079427		-0.00026724	
Mg		0.54643315		1.52968486		1.07887692		-0.00015312		-0.00066275		 0.00066267	
Mg		1.01801264		6.34670027		1.07887692		 0.00046867		 0.00003122		 0.00065682	
Mg		-3.74275624		5.73805437		1.07887692		 0.00030193		-0.00015259		 0.00078920	
Mg		2.29456232		4.64871129		5.86537740		 0.00015312		 0.00066275		 0.00066267	
Mg		1.82298203		-0.16830412		5.86537740		-0.00046867		-0.00003122		 0.00065682	
Mg		6.58375092		0.44034098		5.86537740		-0.00030193		 0.00015259		 0.00078920	
Mg		-0.72610295		4.53814624		0.98506188		 0.00012684		-0.00109229		 0.00030145	
Mg		3.56709763		1.64024912		5.77156236		-0.00012684		 0.00109229		 0.00030145	
Si		3.56709763		1.64024912		1.66665893		-0.00003613		-0.00045110		-0.00002799	
Si		-0.72610295		4.53814624		6.45315941		 0.00003613		 0.00045110		-0.00002799	
Si		0.00000000		0.00000000		3.84643088		-0.00043109		 0.00045852		-0.00056384	
Si		0.00000000		0.00000000		8.63293216		 0.00043109		-0.00045852		-0.00056384	
O		1.43531738		-0.04790813		9.34324829		 0.00004780		 0.00027298		 0.00083567	
O		6.77809390		0.06101631		9.34324829		-0.00026701		-0.00065982		-0.00117889	
O		2.48788399		4.90763917		9.34324829		-0.00069524		 0.00001291		 0.00027679	
O		1.40567809		6.22630268		4.55674781		-0.00004780		-0.00027298		 0.00083567	
O		-3.93709922		6.11737904		4.55674781		 0.00026701		 0.00065982		-0.00117889	
O		0.35311068		1.27075698		4.55674781		 0.00069524		-0.00001291		 0.00027679	
O		3.25031207		0.13528569		4.63716093		-0.00072616		-0.00056301		-0.00019547	
O		5.18740864		1.67594538		4.63716093		-0.00008334		 0.00041529		-0.00028622	
O		2.26357376		3.10951708		4.63716093		-0.00017570		-0.00024514		-0.00030975	
O		-0.40931740		6.04310887		9.42366141		 0.00072616		 0.00056301		-0.00019547	
O		-2.34641397		4.50245077		9.42366141		 0.00008334		-0.00041529		-0.00028622	
O		0.57742012		3.06887907		9.42366141		 0.00017570		 0.00024514		-0.00030975	
O		2.08781485		1.62068117		2.22093613		 0.00030444		-0.00066281		 0.00062708	
O		4.74529809		0.29605461		2.22093613		-0.00096550		-0.00088635		 0.00105908	
O		3.86818233		3.00401078		2.22093613		-0.00029501		 0.00039167		-0.00022154	
O		0.75317983		4.55771419		7.00743582		-0.00030444		 0.00066281		 0.00062708	
O		-1.90430262		5.88233995		7.00743582		 0.00096550		 0.00088635		 0.00105908	
O		-1.02718686		3.17438537		7.00743582		 0.00029501		-0.00039167		-0.00022154	
O		-0.85253522		3.03301723		2.29560512		 0.00043480		 0.00082186		-0.00043304	
O		0.74504284		4.74739165		2.29560512		-0.00005879		-0.00080790		-0.00086142	
O		-2.07081806		5.83402983		2.29560512		 0.00000560		-0.00000076		 0.00072810	
O		3.69352990		3.14537892		7.08210480		-0.00043480		-0.00082186		-0.00043304	
O		2.09595184		1.43100291		7.08210480		 0.00005879		 0.00080790		-0.00086142	
O		4.91181274		0.34436473		7.08210480		-0.00000560		 0.00000076		 0.00072810	
O		3.56709763		1.64024912		0.00000000		-0.00012395		-0.00003442		 0.00011999	
O		-0.72610295		4.53814624		4.78649969		 0.00012395		 0.00003442		 0.00011999	
O		0.00000000		0.00000000		2.22380820		 0.00085046		-0.00055889		-0.00066699	
O		0.00000000		0.00000000		7.01030789		-0.00085046		 0.00055889		-0.00066699	
