# total energy = -35731.1792304 eV	

CRYSTAL	
PRIMVEC	
		7.86030088		-0.94323421		0.00000000	
		-4.74701446		7.27883572		0.00000000	
		0.00000000		0.00000000		9.57299791	
PRIMCOORD
   46 1	
Mg		0.76713532		2.95861485		3.69230611		 0.00012942		 0.00006850		 0.00051695	
Mg		-0.06916576		6.16398665		3.69230611		 0.00001219		 0.00036665		-0.00009863	
Mg		-2.33170156		4.49183653		3.69230611		-0.00012206		-0.00016991		-0.00024737	
Mg		2.34614793		3.37698666		8.47880586		-0.00012942		-0.00006850		 0.00051695	
Mg		3.18244980		0.17161487		8.47880586		-0.00001219		-0.00036665		-0.00009863	
Mg		5.44498560		1.84376419		8.47880586		 0.00012206		 0.00016991		-0.00024737	
Mg		0.61281684		1.56216431		1.07887721		-0.00003574		-0.00025498		-0.00023344	
Mg		1.28523686		6.43017590		1.07887721		-0.00016767		-0.00001453		-0.00002610	
Mg		-3.53178648		5.62209861		1.07887721		-0.00010119		-0.00081172		 0.00009232	
Mg		2.50046721		4.77343800		5.86537696		 0.00003574		 0.00025498		-0.00023344	
Mg		1.82804719		-0.09457517		5.86537696		 0.00016767		 0.00001453		-0.00002610	
Mg		6.64507053		0.71350211		5.86537696		 0.00010119		 0.00081172		 0.00009232	
Mg		-0.54457812		4.53814601		0.98506204		-0.00010622		 0.00015963		 0.00027098	
Mg		3.65786059		1.79745471		5.77156179		 0.00010622		-0.00015963		 0.00027098	
Si		3.65786059		1.79745471		1.66665910		 0.00003320		 0.00040909		-0.00008197	
Si		-0.54457812		4.53814601		6.45315884		-0.00003320		-0.00040909		-0.00008197	
Si		0.00000000		0.00000000		3.84643063		-0.00053793		 0.00003480		 0.00016439	
Si		0.00000000		0.00000000		8.63293117		 0.00053793		-0.00003480		 0.00016439	
O		1.44277823		0.01069862		9.34324761		 0.00054350		 0.00004591		 0.00002339	
O		6.82511747		0.33966406		9.34324761		 0.00014409		 0.00022744		 0.00002666	
O		2.70568764		5.04200305		9.34324761		 0.00046432		 0.00008894		-0.00006433	
O		1.67050582		6.32490290		4.55674786		-0.00054350		-0.00004591		 0.00002339	
O		-3.71183342		5.99593745		4.55674786		-0.00014409		-0.00022744		 0.00002666	
O		0.40759561		1.29359926		4.55674786		-0.00046432		-0.00008894		-0.00006433	
O		3.27721418		0.26960293		4.63716086		 0.00021383		-0.00058753		-0.00084897	
O		5.29027999		1.89989987		4.63716086		 0.00015522		 0.00003027		-0.00026146	
O		2.40608996		3.22286214		4.63716086		-0.00062144		-0.00017178		 0.00010192	
O		-0.16393014		6.06599859		9.42366061		-0.00021383		 0.00058753		-0.00084897	
O		-2.17699595		4.43570086		9.42366061		-0.00015522		-0.00003027		-0.00026146	
O		0.70719330		3.11273859		9.42366061		 0.00062144		 0.00017178		 0.00010192	
O		2.16805800		1.71703300		2.22093596		 0.00031240		 0.00004120		 0.00005323	
O		4.78861904		0.49279900		2.22093596		 0.00011147		 0.00052727		-0.00013539	
O		4.01690550		3.18253372		2.22093596		 0.00007938		-0.00020680		-0.00042489	
O		0.94522604		4.61856772		7.00743570		-0.00031240		-0.00004120		 0.00005323	
O		-1.67533579		5.84280251		7.00743570		-0.00011147		-0.00052727		-0.00013539	
O		-0.90362225		3.15306780		7.00743570		-0.00007938		 0.00020680		-0.00042489	
O		-0.73362713		3.01794096		2.29560461		-0.00065487		 0.00032669		 0.00033550	
O		0.94482071		4.80915890		2.29560461		-0.00045651		-0.00026684		 0.00008560	
O		-1.84492716		5.78733976		2.29560461		-0.00018473		-0.00009167		 0.00037875	
O		3.84690959		3.31766056		7.08210436		 0.00065487		-0.00032669		 0.00033550	
O		2.16846254		1.52644262		7.08210436		 0.00045651		 0.00026684		 0.00008560	
O		4.95821041		0.54826176		7.08210436		 0.00018473		 0.00009167		 0.00037875	
O		3.65786059		1.79745471		0.00000000		 0.00003114		-0.00022806		 0.00014800	
O		-0.54457812		4.53814601		4.78649975		-0.00003114		 0.00022806		 0.00014800	
O		0.00000000		0.00000000		2.22380813		 0.00034556		 0.00016028		 0.00022484	
O		0.00000000		0.00000000		7.01030788		-0.00034556		-0.00016028		 0.00022484	
