# total energy = -35732.535444 eV	

CRYSTAL	
PRIMVEC	
		7.86030040		-0.31441170		0.00000000	
		-4.20244027		6.96442214		0.00000000	
		0.00000000		0.00000000		9.57299772	
PRIMCOORD
   46 1	
Mg		1.01475495		3.04969989		3.69230634		 0.00019259		 0.00187081		-0.00052029	
Mg		0.43048396		6.21841178		3.69230634		-0.00010751		 0.00035167		-0.00054027	
Mg		-1.98981590		4.34632720		3.69230634		 0.00003978		 0.00043955		 0.00068795	
Mg		2.64310596		3.60031291		8.47880598		-0.00019259		-0.00187081		-0.00052029	
Mg		3.22737696		0.43160180		8.47880598		 0.00010751		-0.00035167		-0.00054027	
Mg		5.64767839		2.30368638		8.47880598		-0.00003978		-0.00043955		 0.00068795	
Mg		0.74558478		1.62712067		1.07887707		 0.00120139		 0.00140005		 0.00057242	
Mg		1.81968604		6.59712889		1.07887707		 0.00101149		 0.00026629		 0.00054794	
Mg		-3.10984780		5.39018931		1.07887707		-0.00043753		-0.00024105		-0.00087733	
Mg		2.91227614		5.02289212		5.86537672		-0.00120139		-0.00140005		 0.00057242	
Mg		1.83817566		0.05288470		5.86537672		-0.00101149		-0.00026629		 0.00054794	
Mg		6.76770872		1.25982506		5.86537672		 0.00043753		 0.00024105		-0.00087733	
Mg		-0.18152619		4.53814603		0.98506174		-0.00029662		 0.00028955		 0.00162389	
Mg		3.83938710		2.11186677		5.77156217		 0.00029662		-0.00028955		 0.00162389	
Si		3.83938710		2.11186677		1.66665892		-0.00062451		-0.00007236		 0.00029015	
Si		-0.18152619		4.53814603		6.45315935		 0.00062451		 0.00007236		 0.00029015	
Si		0.00000000		0.00000000		3.84643085		-0.00055511		 0.00010342		 0.00026158	
Si		0.00000000		0.00000000		8.63293207		 0.00055511		-0.00010342		 0.00026158	
O		1.45769880		0.12791069		9.34324779		 0.00080615		-0.00060857		 0.00001768	
O		6.91916724		0.89695913		9.34324779		-0.00018931		-0.00021333		 0.00007061	
O		3.14129605		5.31073129		9.34324779		 0.00126290		-0.00054092		 0.00126745	
O		2.20016212		6.52210211		4.55674814		-0.00080615		 0.00060857		 0.00001768	
O		-3.26130475		5.75305367		4.55674814		 0.00018931		 0.00021333		 0.00007061	
O		0.51656565		1.33928309		4.55674814		-0.00126290		 0.00054092		 0.00126745	
O		3.33101765		0.53823731		4.63716117		 0.00032640		-0.00051549		-0.00154931	
O		5.49602085		2.34781164		4.63716117		 0.00023499		 0.00036683		-0.00002921	
O		2.69112203		3.44955294		4.63716117		-0.00109320		-0.00037706		 0.00140274	
O		0.32684327		6.11177706		9.42366082		-0.00032640		 0.00051549		-0.00154931	
O		-1.83815993		4.30220195		9.42366082		-0.00023499		-0.00036683		-0.00002921	
O		0.96673889		3.20045986		9.42366082		 0.00109320		 0.00037706		 0.00140274	
O		2.32854480		1.90973563		2.22093620		-0.00029827		-0.00133565		-0.00076217	
O		4.87526070		0.88628496		2.22093620		 0.00017429		-0.00031625		-0.00126700	
O		4.31435425		3.53957972		2.22093620		 0.00143821		-0.00062203		-0.00010463	
O		1.32931612		4.74027716		7.00743584		 0.00029827		 0.00133565		-0.00076217	
O		-1.21739978		5.76372784		7.00743584		-0.00017429		 0.00031625		-0.00126700	
O		-0.65649333		3.11043308		7.00743584		-0.00143821		 0.00062203		-0.00010463	
O		-0.49580966		2.98778907		2.29560504		 0.00024123		 0.00076070		-0.00041749	
O		1.34437827		4.93269071		2.29560504		-0.00094324		-0.00153776		-0.00075550	
O		-1.39314481		5.69395909		2.29560504		-0.00155580		 0.00063487		-0.00009147	
O		4.15367137		3.66222530		7.08210469		-0.00024123		-0.00076070		-0.00041749	
O		2.31348422		1.71732288		7.08210469		 0.00094324		 0.00153776		-0.00075550	
O		5.05100730		0.95605371		7.08210469		 0.00155580		-0.00063487		-0.00009147	
O		3.83938710		2.11186677		0.00000000		 0.00114124		 0.00112107		 0.00031092	
O		-0.18152619		4.53814603		4.78650043		-0.00114124		-0.00112107		 0.00031092	
O		0.00000000		0.00000000		2.22380829		-0.00102229		 0.00165894		-0.00013862	
O		0.00000000		0.00000000		7.01030793		 0.00102229		-0.00165894		-0.00013862	
