# total energy = -22464.0878252 eV

CRYSTAL
PRIMVEC
		9.73970164		1.16876184		0.00000000
		1.07008733		8.91740419		0.00000000
		-1.43536648		-0.17224633		5.05028324
PRIMECORD
   40 1
Mg		0.61288264		8.05465205		1.26257081		 0.00034108		 0.00032907		-0.00085611
Mg		-0.97816572		0.69050385		3.78771243		-0.00034108		-0.00032907		 0.00085611
Mg		4.94768882		4.18033283		1.26257081		 0.00032378		 0.00035258		-0.00084922
Mg		4.42672778		5.73358588		3.78771243		-0.00032378		-0.00035258		 0.00084922
Ca		-0.03623265		2.64535699		1.26257081		-0.00012873		 0.00025826		 0.00059071
Ca		-0.32905043		6.09979891		3.78771243		 0.00012873		-0.00025826		-0.00059071
Ca		5.36866184		7.68843902		1.26257081		-0.00012403		 0.00023961		 0.00058892
Ca		4.00575575		2.22548068		3.78771243		 0.00012403		-0.00023961		-0.00058892
Si		2.55790953		1.12599504		1.15833328		-0.00006302		 0.00015834		-0.00028705
Si		6.81650708		8.78792466		3.89194996		 0.00006302		-0.00015834		 0.00028705
Si		6.66354833		1.61867213		1.36680932		 0.00004989		 0.00009082		 0.00016594
Si		2.71086925		8.29524757		3.68347392		-0.00004989		-0.00009082		-0.00016594
Si		7.96280401		6.16907707		1.15833328		-0.00004451		 0.00011080		-0.00028946
Si		1.41161259		3.74484165		3.89194996		 0.00004451		-0.00011080		 0.00028946
Si		2.32874215		5.49299036		1.36680932		-0.00000703		-0.00002231		 0.00016819
Si		7.04567641		4.42093032		3.68347392		 0.00000703		 0.00002231		-0.00016819
O		1.01469364		0.88552703		0.71643252		-0.00023410		 0.00004427		-0.00014388
O		8.35972297		9.02839267		4.33384974		 0.00023410		-0.00004427		 0.00014388
O		8.19330156		1.74695881		1.80870812		 0.00006163		-0.00004687		 0.00017394
O		1.18111504		8.16695991		3.24157512		-0.00006163		 0.00004687		-0.00017394
O		6.41958812		5.92860907		0.71643252		-0.00025674		 0.00004721		-0.00014722
O		2.95482947		3.98531063		4.33384974		 0.00025674		-0.00004721		 0.00014722
O		3.85849637		5.62127802		1.80870812		 0.00012854		-0.00004387		 0.00019536
O		5.51592122		4.29264168		3.24157512		-0.00012854		 0.00004387		-0.00019536
O		3.32706949		2.59816606		1.60477784		 0.00043767		-0.00012925		 0.00002584
O		6.04734809		7.31575364		3.44550540		-0.00043767		 0.00012925		-0.00002584
O		6.23039575		2.94656490		0.92036378		 0.00082950		 0.00012311		-0.00002714
O		3.14402086		6.96735480		4.12991947		-0.00082950		-0.00012311		 0.00002714
O		8.73196300		7.64124810		1.60477784		 0.00044326		-0.00009236		 0.00003023
O		0.64245361		2.27267160		3.44550540		-0.00044326		 0.00009236		-0.00003023
O		1.89558957		6.82088313		0.92036378		 0.00079113		 0.00022830		-0.00004529
O		7.47882704		3.09303657		4.12991947		-0.00079113		-0.00022830		 0.00004529
O		2.00585606		0.39398295		5.02720328		 0.00044826		-0.00047799		 0.00039063
O		7.36856152		9.51993675		0.02307997		-0.00044826		 0.00047799		-0.00039063
O		5.61811247		0.82745337		2.54822061		-0.00030895		 0.00002375		 0.00027140
O		3.75630512		9.08646633		2.50206165		 0.00030895		-0.00002375		-0.00027140
O		7.41074956		5.43706499		5.02720328		 0.00043605		-0.00048272		 0.00037751
O		1.96366704		4.47685471		0.02307997		-0.00043605		 0.00048272		-0.00037751
O		1.28330629		4.70177160		2.54822061		-0.00028922		 0.00003390		 0.00025588
O		8.09111129		5.21214810		2.50206165		 0.00028922		-0.00003390		-0.00025588
