# total energy = -41268.5343544 eV

CRYSTAL
PRIMVEC
		7.30800010		0.00000000		0.00000000
		0.00000000		8.11999930		0.00000000
		0.00000000		0.00000000		8.11999930
PRIMECORD
   56 1
Si		0.91350001		1.01500010		1.01500010		-0.00000395		 0.00000019		 0.00000019
Si		6.39450009		7.10499994		7.10499994		 0.00000395		-0.00000019		-0.00000019
Si		4.56750007		1.01500010		5.07499975		-0.00000321		 0.00000008		-0.00000008
Si		2.74050004		7.10499994		3.04500029		 0.00000321		-0.00000008		 0.00000008
Si		0.91350001		5.07499975		5.07499975		-0.00000393		 0.00000008		 0.00000008
Si		6.39450009		3.04500029		3.04500029		 0.00000393		-0.00000008		-0.00000008
Si		4.56750007		5.07499975		1.01500010		-0.00000321		-0.00000008		 0.00000008
Si		2.74050004		3.04500029		7.10499994		 0.00000321		 0.00000008		-0.00000008
Mg		3.65400005		4.06000038		4.06000038		0.00000000		0.00000000		0.00000000
Mg		1.82700003		6.08999984		0.00000000		-0.00000007		 0.00000002		-0.00000000
Mg		5.48100008		2.03000019		0.00000000		 0.00000007		-0.00000002		0.00000000
Mg		5.48100008		0.00000000		2.03000019		 0.00000007		0.00000000		-0.00000002
Mg		1.82700003		0.00000000		6.08999984		-0.00000007		-0.00000000		 0.00000002
Mg		0.00000000		2.03000019		6.08999984		0.00000000		 0.00000001		-0.00000001
Mg		0.00000000		6.08999984		2.03000019		0.00000000		-0.00000001		 0.00000001
Mg		3.65400005		0.00000000		0.00000000		0.00000000		0.00000000		0.00000000
Mg		1.82700003		2.03000019		4.06000038		-0.00000006		 0.00000006		-0.00000000
Mg		5.48100008		6.08999984		4.06000038		 0.00000006		-0.00000006		0.00000000
Mg		5.48100008		4.06000038		6.08999984		 0.00000006		0.00000000		-0.00000006
Mg		1.82700003		4.06000038		2.03000019		-0.00000006		-0.00000000		 0.00000006
Mg		0.00000000		4.06000038		0.00000000		0.00000000		0.00000000		0.00000000
Mg		3.65400005		2.03000019		2.03000019		 0.00000002		0.00000000		0.00000000
Mg		3.65400005		6.08999984		6.08999984		-0.00000002		-0.00000000		-0.00000000
Mg		0.00000000		0.00000000		4.06000038		0.00000000		0.00000000		0.00000000
O		1.76561283		1.96179170		1.96179170		-0.00003967		-0.00001392		-0.00001392
O		5.54238728		6.15820833		6.15820833		 0.00003967		 0.00001392		 0.00001392
O		3.71538725		0.06820776		6.02179209		 0.00003314		 0.00001340		-0.00001337
O		3.59261285		8.05179228		2.09820795		-0.00003314		-0.00001340		 0.00001337
O		0.06138720		6.02179209		4.12820814		 0.00003313		-0.00001365		 0.00001369
O		7.24661290		2.09820795		3.99179189		-0.00003313		 0.00001365		-0.00001369
O		5.41961288		4.12820814		0.06820776		-0.00003984		 0.00001416		 0.00001416
O		1.88838723		3.99179189		8.05179228		 0.00003984		-0.00001416		-0.00001416
O		7.24661290		3.99179189		2.09820795		-0.00003313		-0.00001369		 0.00001365
O		0.06138720		4.12820814		6.02179209		 0.00003313		 0.00001369		-0.00001365
O		3.59261285		2.09820795		8.05179228		-0.00003314		 0.00001337		-0.00001340
O		3.71538725		6.02179209		0.06820776		 0.00003314		-0.00001337		 0.00001340
O		1.88838723		8.05179228		3.99179189		 0.00003984		-0.00001416		-0.00001416
O		5.41961288		0.06820776		4.12820814		-0.00003984		 0.00001416		 0.00001416
O		1.76561283		6.02179209		6.02179209		-0.00003963		-0.00001388		-0.00001388
O		5.54238728		2.09820795		2.09820795		 0.00003963		 0.00001388		 0.00001388
O		3.71538725		4.12820814		1.96179170		 0.00003321		 0.00001344		-0.00001343
O		3.59261285		3.99179189		6.15820833		-0.00003321		-0.00001344		 0.00001343
O		0.06138720		1.96179170		0.06820776		 0.00003313		-0.00001368		 0.00001370
O		7.24661290		6.15820833		8.05179228		-0.00003313		 0.00001368		-0.00001370
O		7.24661290		8.05179228		6.15820833		-0.00003313		-0.00001370		 0.00001368
O		0.06138720		0.06820776		1.96179170		 0.00003313		 0.00001370		-0.00001368
O		3.59261285		6.15820833		3.99179189		-0.00003321		 0.00001343		-0.00001344
O		3.71538725		1.96179170		4.12820814		 0.00003321		-0.00001343		 0.00001344
O		5.41961288		1.96179170		6.02179209		-0.00003983		-0.00001409		-0.00001410
O		1.88838723		6.15820833		2.09820795		 0.00003983		 0.00001409		 0.00001410
O		1.76561283		4.12820814		4.12820814		-0.00003947		 0.00001377		 0.00001377
O		5.54238728		3.99179189		3.99179189		 0.00003947		-0.00001377		-0.00001377
O		5.54238728		8.05179228		8.05179228		 0.00003941		-0.00001371		-0.00001371
O		1.76561283		0.06820776		0.06820776		-0.00003941		 0.00001371		 0.00001371
O		5.41961288		6.02179209		1.96179170		-0.00003983		-0.00001410		-0.00001409
O		1.88838723		2.09820795		6.15820833		 0.00003983		 0.00001410		 0.00001409
