# total energy = -41272.2160705 eV

CRYSTAL
PRIMVEC
		8.72899964		0.00000000		0.00000000
		0.00000000		8.12000352		0.00000000
		0.00000000		0.00000000		8.12000352
PRIMECORD
   56 1
Si		1.09112495		1.01500022		1.01500022		 0.00000265		-0.00000092		-0.00000092
Si		7.63787468		7.10499981		7.10499981		-0.00000265		 0.00000092		 0.00000092
Si		5.45562477		1.01500022		5.07499936		-0.00000249		-0.00000083		 0.00000087
Si		3.27337486		7.10499981		3.04499979		 0.00000249		 0.00000083		-0.00000087
Si		1.09112495		5.07499936		5.07499936		 0.00000242		 0.00000083		 0.00000083
Si		7.63787468		3.04499979		3.04499979		-0.00000242		-0.00000083		-0.00000083
Si		5.45562477		5.07499936		1.01500022		-0.00000249		 0.00000087		-0.00000083
Si		3.27337486		3.04499979		7.10499981		 0.00000249		-0.00000087		 0.00000083
Mg		4.36449982		4.06000001		4.06000001		0.00000000		0.00000000		0.00000000
Mg		2.18224991		6.08999959		0.00000000		 0.00000078		 0.00000027		-0.00000055
Mg		6.54674973		2.02999957		0.00000000		-0.00000078		-0.00000027		 0.00000055
Mg		6.54674973		0.00000000		2.02999957		-0.00000078		 0.00000055		-0.00000027
Mg		2.18224991		0.00000000		6.08999959		 0.00000078		-0.00000055		 0.00000027
Mg		0.00000000		2.02999957		6.08999959		0.00000000		-0.00000004		 0.00000004
Mg		0.00000000		6.08999959		2.02999957		0.00000000		 0.00000004		-0.00000004
Mg		4.36449982		0.00000000		0.00000000		0.00000000		0.00000000		0.00000000
Mg		2.18224991		2.02999957		4.06000001		 0.00000068		 0.00000008		-0.00000018
Mg		6.54674973		6.08999959		4.06000001		-0.00000068		-0.00000008		 0.00000018
Mg		6.54674973		4.06000001		6.08999959		-0.00000068		 0.00000018		-0.00000008
Mg		2.18224991		4.06000001		2.02999957		 0.00000068		-0.00000018		 0.00000008
Mg		0.00000000		4.06000001		0.00000000		0.00000000		0.00000000		0.00000000
Mg		4.36449982		2.02999957		2.02999957		 0.00000020		-0.00000031		-0.00000031
Mg		4.36449982		6.08999959		6.08999959		-0.00000020		 0.00000031		 0.00000031
Mg		0.00000000		0.00000000		4.06000001		0.00000000		0.00000000		0.00000000
O		2.10892631		1.96179204		1.96179204		-0.00002136		-0.00004066		-0.00004066
O		6.62007245		6.15820799		6.15820799		 0.00002136		 0.00004066		 0.00004066
O		4.43782254		0.06820840		6.02179206		 0.00002162		 0.00004161		-0.00004189
O		4.29117622		8.05179163		2.09820797		-0.00002162		-0.00004161		 0.00004189
O		0.07332360		6.02179206		4.12820755		 0.00002027		-0.00004105		 0.00004107
O		8.65567692		2.09820797		3.99179161		-0.00002027		 0.00004105		-0.00004107
O		6.47342701		4.12820755		0.06820840		-0.00001930		 0.00004096		 0.00004078
O		2.25557351		3.99179161		8.05179163		 0.00001930		-0.00004096		-0.00004078
O		8.65567692		3.99179161		2.09820797		-0.00002027		-0.00004107		 0.00004105
O		0.07332360		4.12820755		6.02179206		 0.00002027		 0.00004107		-0.00004105
O		4.29117622		2.09820797		8.05179163		-0.00002162		 0.00004189		-0.00004161
O		4.43782254		6.02179206		0.06820840		 0.00002162		-0.00004189		 0.00004161
O		2.25557351		8.05179163		3.99179161		 0.00001930		-0.00004078		-0.00004096
O		6.47342701		0.06820840		4.12820755		-0.00001930		 0.00004078		 0.00004096
O		2.10892631		6.02179206		6.02179206		-0.00002261		-0.00004170		-0.00004170
O		6.62007245		2.09820797		2.09820797		 0.00002261		 0.00004170		 0.00004170
O		4.43782254		4.12820755		1.96179204		 0.00002050		 0.00004112		-0.00004067
O		4.29117622		3.99179161		6.15820799		-0.00002050		-0.00004112		 0.00004067
O		0.07332360		1.96179204		0.06820840		 0.00001997		-0.00004083		 0.00004104
O		8.65567692		6.15820799		8.05179163		-0.00001997		 0.00004083		-0.00004104
O		8.65567692		8.05179163		6.15820799		-0.00001997		-0.00004104		 0.00004083
O		0.07332360		0.06820840		1.96179204		 0.00001997		 0.00004104		-0.00004083
O		4.29117622		6.15820799		3.99179161		-0.00002050		 0.00004067		-0.00004112
O		4.43782254		1.96179204		4.12820755		 0.00002050		-0.00004067		 0.00004112
O		6.47342701		1.96179204		6.02179206		-0.00001929		-0.00004066		-0.00004134
O		2.25557351		6.15820799		2.09820797		 0.00001929		 0.00004066		 0.00004134
O		2.10892631		4.12820755		4.12820755		-0.00002147		 0.00004125		 0.00004125
O		6.62007245		3.99179161		3.99179161		 0.00002147		-0.00004125		-0.00004125
O		6.62007245		8.05179163		8.05179163		 0.00002236		-0.00004168		-0.00004168
O		2.10892631		0.06820840		0.06820840		-0.00002236		 0.00004168		 0.00004168
O		6.47342701		6.02179206		1.96179204		-0.00001929		-0.00004134		-0.00004066
O		2.25557351		2.09820797		6.15820799		 0.00001929		 0.00004134		 0.00004066
