# total energy = -21542.5595603 eV	

CRYSTAL	
PRIMVEC	
		5.18479989		0.00000000		0.00000000	
		0.00000000		9.36915116		0.00000000	
		-0.14435001		-0.11620174		9.18819646	
PRIMCOORD
   42 1	
Mg		0.00000000		0.00000000		0.00000000		0.00000000		0.00000000		0.00000000	
Mg		2.59239994		4.68457506		0.00000000		0.00000000		0.00000000		0.00000000	
Mg		2.59239994		1.56080675		0.00000000		 0.00007753		-0.00023842		-0.00009295	
Mg		2.59239994		7.80834389		0.00000000		-0.00007753		 0.00023842		 0.00009295	
Mg		0.00000000		6.24538181		0.00000000		 0.00007732		-0.00017777		-0.00009231	
Mg		0.00000000		3.12376779		0.00000000		-0.00007732		 0.00017777		 0.00009231	
Si		4.28040591		1.52924014		2.67376605		 0.00042857		-0.00029305		 0.00012165	
Si		0.76004293		7.72370566		6.51443300		-0.00042857		 0.00029305		-0.00012165	
Si		1.68800597		6.21381468		2.67376605		 0.00044910		 0.00013836		 0.00027336	
Si		3.35244287		3.03913112		6.51443300		-0.00044910		-0.00013836		-0.00027336	
Si		1.68800597		3.08770388		2.67376605		 0.00025372		-0.00057862		 0.00014902	
Si		3.35244287		6.16524192		6.51443300		-0.00025372		 0.00057862		-0.00014902	
Si		4.28040591		7.77227997		2.67376605		 0.00024915		-0.00017834		 0.00000543	
Si		0.76004293		1.48066686		6.51443300		-0.00024915		 0.00017834		-0.00000543	
O		1.71272606		3.10654181		1.08053200		 0.00037919		 0.00001585		 0.00012975	
O		3.32772382		6.14640398		8.10766705		-0.00037919		-0.00001585		-0.00012975	
O		4.30512600		7.79111791		1.08053200		 0.00037410		-0.00003721		 0.00014301	
O		0.73532387		1.46182789		8.10766705		-0.00037410		 0.00003721		-0.00014301	
O		4.30512600		1.55079490		1.08053200		 0.00022449		-0.00029617		 0.00028969	
O		0.73532387		7.70215089		8.10766705		-0.00022449		 0.00029617		-0.00028969	
O		1.71272606		6.23537100		1.08053200		 0.00022722		-0.00035264		 0.00026474	
O		3.32772382		3.01757583		8.10766705		-0.00022722		 0.00035264		-0.00026474	
O		1.71012899		-0.01308488		1.03459104		-0.00059077		 0.00009897		 0.00007635	
O		3.33031985		-0.10311997		8.15360801		 0.00059077		-0.00009897		-0.00007635	
O		4.30252893		4.67149070		1.03459104		-0.00059836		 0.00010599		-0.00036155	
O		0.73792094		4.58145509		8.15360801		 0.00059836		-0.00010599		 0.00036155	
O		1.77272715		4.64412377		3.19841180		-0.00028824		-0.00028427		-0.00084222	
O		3.26772168		4.60882202		5.98978673		 0.00028824		 0.00028427		 0.00084222	
O		4.36512710		-0.04045077		3.19841180		-0.00028359		-0.00026294		-0.00091153	
O		0.67532174		-0.07575407		5.98978673		 0.00028359		 0.00026294		 0.00091153	
O		2.93016995		2.21732789		3.20576281		-0.00024435		-0.00058836		 0.00057976	
O		2.11027888		7.03561790		5.98243676		 0.00024435		 0.00058836		-0.00057976	
O		0.33777001		6.90190295		3.20576281		 0.00016103		-0.00086823		 0.00055970	
O		4.70267986		2.35104284		5.98243676		-0.00016103		 0.00086823		-0.00055970	
O		0.33771816		2.38616001		3.20576281		 0.00063519		-0.00025418		 0.00080620	
O		4.70273067		6.86678578		5.98243676		-0.00063519		 0.00025418		-0.00080620	
O		2.93011914		7.07073507		3.20576281		 0.00021690		-0.00054251		 0.00082020	
O		2.11033073		2.18221072		5.98243676		-0.00021690		 0.00054251		-0.00082020	
H		1.69733912		-0.00925487		1.86520376		 0.00044636		 0.00017642		 0.00014639	
H		3.34311075		9.26220066		7.32299477		-0.00044636		-0.00017642		-0.00014639	
H		4.28973907		4.67531967		1.86520376		 0.00043292		 0.00017271		 0.00054741	
H		0.75071081		4.57762612		7.32299477		-0.00043292		-0.00017271		-0.00054741	
