# total energy = -21538.3710302 eV	

CRYSTAL	
PRIMVEC	
		5.18479989		0.00000000		0.00000000	
		0.00000000		8.25377627		0.00000000	
		-0.14435001		-0.10236869		9.18819646	
PRIMCOORD
   42 1	
Mg		0.00000000		0.00000000		0.00000000		0.00000000		0.00000000		0.00000000	
Mg		2.59239994		4.12688813		0.00000000		0.00000000		0.00000000		0.00000000	
Mg		2.59239994		1.37499597		0.00000000		-0.00004253		-0.00037220		-0.00009151	
Mg		2.59239994		6.87877874		0.00000000		 0.00004253		 0.00037220		 0.00009151	
Mg		0.00000000		5.50188410		0.00000000		-0.00004253		-0.00037645		-0.00009115	
Mg		0.00000000		2.75189113		0.00000000		 0.00004253		 0.00037645		 0.00009115	
Si		4.28040591		1.34718781		2.67376605		-0.00021757		 0.00000387		 0.00015346	
Si		0.76004293		6.80421665		6.51443300		 0.00021757		-0.00000387		-0.00015346	
Si		1.68800597		5.47407491		2.67376605		-0.00022078		-0.00000231		 0.00015383	
Si		3.35244287		2.67733008		6.51443300		 0.00022078		 0.00000231		-0.00015383	
Si		1.68800597		2.72011971		2.67376605		-0.00027672		 0.00014265		 0.00006278	
Si		3.35244287		5.43128372		6.51443300		 0.00027672		-0.00014265		-0.00006278	
Si		4.28040591		6.84700785		2.67376605		-0.00027604		 0.00013060		 0.00006139	
Si		0.76004293		1.30439714		6.51443300		 0.00027604		-0.00013060		-0.00006139	
O		1.71272606		2.73671574		1.08053200		 0.00002425		 0.00005905		 0.00004176	
O		3.32772382		5.41468873		8.10766705		-0.00002425		-0.00005905		-0.00004176	
O		4.30512600		6.86360387		1.08053200		 0.00002383		 0.00005952		 0.00004401	
O		0.73532387		1.28780111		8.10766705		-0.00002383		-0.00005952		-0.00004401	
O		4.30512600		1.36617714		1.08053200		-0.00000255		 0.00007429		 0.00012038	
O		0.73532387		6.78522784		8.10766705		 0.00000255		-0.00007429		-0.00012038	
O		1.71272606		5.49306476		1.08053200		-0.00000212		 0.00007500		 0.00011705	
O		3.32772382		2.65834075		8.10766705		 0.00000212		-0.00007500		-0.00011705	
O		1.71012899		-0.01152685		1.03459104		 0.00042171		 0.00002454		-0.00007510	
O		3.33031985		-0.09084392		8.15360801		-0.00042171		-0.00002454		 0.00007510	
O		4.30252893		4.11536077		1.03459104		 0.00042463		 0.00002496		-0.00012548	
O		0.73792094		4.03604370		8.15360801		-0.00042463		-0.00002496		 0.00012548	
O		1.77272715		4.09125197		3.19841180		 0.00014393		 0.00012116		-0.00026639	
O		3.26772168		4.06015198		5.98978673		-0.00014393		-0.00012116		 0.00026639	
O		4.36512710		-0.03563513		3.19841180		 0.00014515		 0.00012690		-0.00026442	
O		0.67532174		-0.06673511		5.98978673		-0.00014515		-0.00012690		 0.00026442	
O		2.93016995		1.95335988		3.20576281		-0.00004496		 0.00032542		 0.00044766	
O		2.11027888		6.19804511		5.98243676		 0.00004496		-0.00032542		-0.00044766	
O		0.33777001		6.08024801		3.20576281		-0.00004868		 0.00032977		 0.00044647	
O		4.70267986		2.07115698		5.98243676		 0.00004868		-0.00032977		-0.00044647	
O		0.33771816		2.10209312		3.20576281		-0.00003046		-0.00007218		 0.00051262	
O		4.70273067		6.04931187		5.98243676		 0.00003046		 0.00007218		-0.00051262	
O		2.93011914		6.22898074		3.20576281		-0.00002610		-0.00006733		 0.00051345	
O		2.11033073		1.92242373		5.98243676		 0.00002610		 0.00006733		-0.00051345	
H		1.69733912		-0.00815310		1.86520376		 0.00055291		 0.00011131		-0.00011230	
H		3.34311075		8.15955757		7.32299477		-0.00055291		-0.00011131		 0.00011230	
H		4.28973907		4.11873504		1.86520376		 0.00055551		 0.00011146		-0.00006376	
H		0.75071081		4.03266995		7.32299477		-0.00055551		-0.00011146		 0.00006376	
