# total energy = -12354.0265213 eV

CRYSTAL
PRIMVEC
		2.70774464		0.00000000		0.00000000
		0.00000000		9.18233219		0.00018957
		0.00000000		0.00014772		6.73000775
PRIMECORD
   20 1
O		0.00000000		0.67485294		1.68298363		 0.00000002		-0.00022391		-0.00006837
O		0.00000000		8.50765110		5.04721493		-0.00000002		 0.00016267		 0.00006843
O		1.35387158		5.26599540		1.68307866		 0.00000002		-0.00016273		-0.00006841
O		1.35387133		3.91646039		5.04711940		-0.00000001		 0.00022398		 0.00006836
O		0.00000000		3.43482866		2.98997036		 0.00000006		-0.00000044		 0.00029276
O		0.00000000		5.74762712		3.74022229		-0.00000006		 0.00005844		-0.00027968
O		0.00000000		5.74750156		6.35531325		-0.00000000		 0.00003431		 0.00016526
O		0.00000000		3.43495422		0.37489023		 0.00000001		 0.00002377		-0.00017834
O		1.35387133		8.02601913		2.99007130		 0.00000002		-0.00005841		 0.00027963
O		1.35387183		1.15648491		3.74013243		-0.00000003		 0.00000043		-0.00029273
O		1.35387158		1.15635959		6.35521305		-0.00000001		-0.00002380		 0.00017831
O		1.35387133		8.02614469		0.37498010		 0.00000002		-0.00003432		-0.00016523
Si		0.00000000		-0.00003176		0.00000000		-0.00000001		 0.00008172		-0.00000681
Si		0.00000000		0.00004161		3.36500166		-0.00000000		 0.00008173		 0.00000674
Si		1.35387158		4.59119835		0.00009282		 0.00000002		-0.00008171		 0.00000680
Si		1.35387158		4.59127172		3.36510137		-0.00000000		-0.00008171		-0.00000673
Mg		0.00000000		2.38788749		5.04616193		 0.00000001		-0.00001799		 0.00064322
Mg		0.00000000		6.79459833		1.68403638		-0.00000003		 0.00000384		-0.00064329
Mg		1.35387109		6.97904793		5.04625721		 0.00000002		-0.00000385		 0.00064328
Mg		1.35387183		2.20342608		1.68394085		-0.00000001		 0.00001799		-0.00064320
