# total energy = -12353.8242381 eV

CRYSTAL
PRIMVEC
		2.66545732		0.00000000		0.00000000
		0.00000000		8.98269353		0.00005663
		0.00000000		0.00004185		6.61355515
PRIMECORD
   20 1
O		0.00000000		0.65917074		1.65364964		 0.00000001		-0.00000390		-0.00004998
O		0.00000000		8.32355627		4.95996042		-0.00000001		 0.00002913		 0.00004994
O		1.33272817		5.15052587		1.65367746		-0.00000000		-0.00002910		-0.00004995
O		1.33272817		3.83221764		4.95993260		-0.00000000		 0.00000390		 0.00004999
O		0.00000000		3.34215996		2.93300583		 0.00000005		 0.00008490		 0.00009543
O		0.00000000		5.64058527		3.68060619		-0.00000002		-0.00011056		-0.00010117
O		0.00000000		5.64054464		6.24004684		-0.00000001		-0.00012052		-0.00000907
O		0.00000000		3.34220059		0.37356174		 0.00000003		 0.00009483		 0.00001476
O		1.33272817		7.83349688		2.93303193		0.00000000		 0.00011057		 0.00010115
O		1.33272842		1.14922841		3.68057665		-0.00000003		-0.00008493		-0.00009546
O		1.33272842		1.14918779		6.24002074		-0.00000004		-0.00009483		-0.00001477
O		1.33272817		7.83353726		0.37359103		 0.00000004		 0.00012048		 0.00000911
Si		0.00000000		0.00001354		0.00000000		0.00000000		-0.00003566		 0.00000339
Si		0.00000000		0.00003422		3.30677856		-0.00000001		-0.00003575		-0.00000340
Si		1.33272817		4.49133347		0.00002905		 0.00000001		 0.00003570		-0.00000343
Si		1.33272817		4.49135390		3.30680367		 0.00000001		 0.00003578		 0.00000342
Mg		0.00000000		2.31722957		4.95941607		-0.00000001		-0.00024101		 0.00029828
Mg		0.00000000		6.66550163		1.65419398		 0.00000001		 0.00024750		-0.00029825
Mg		1.33272817		6.80858052		4.95944364		-0.00000002		-0.00024752		 0.00029830
Mg		1.33272817		2.17415856		1.65416641		0.00000000		 0.00024101		-0.00029831
