# total energy = -20636.5503101 eV

CRYSTAL
PRIMVEC
		10.68390378		0.00000000		-0.00145725
		0.00000000		6.16730312		0.00000000
		-0.00117585		0.00000000		4.88023981
PRIMECORD
   28 1
Si		3.56052406		0.00000000		4.50938275		-0.00005713		-0.00000043		 0.00005766
Si		7.12220387		0.00000000		0.36940283		 0.00005724		-0.00000040		-0.00005760
Si		8.90279152		3.08365055		4.50862599		-0.00004161		 0.00000022		 0.00004561
Si		1.77993742		3.08364955		0.37016060		 0.00004152		 0.00000037		-0.00004566
Mg		0.00000000		0.00000000		0.00000000		 0.00000004		 0.00000009		 0.00000005
Mg		5.34195189		3.08364955		-0.00072963		-0.00000015		-0.00000006		-0.00000005
Mg		5.34136397		0.00000000		2.43939229		-0.00000002		-0.00000075		 0.00000015
Mg		-0.00058692		3.08364955		2.44012292		 0.00000003		 0.00000060		-0.00000009
Mg		2.66884886		1.54156448		2.43987469		 0.00056644		 0.00021968		-0.00000084
Mg		8.01387907		4.62573562		2.43891190		-0.00056659		-0.00021969		 0.00000087
Mg		8.01387907		1.54156448		2.43891190		-0.00056634		 0.00021957		 0.00000097
Mg		2.66884886		4.62573562		2.43987469		 0.00056638		-0.00021963		-0.00000083
O		8.63617005		0.00000000		1.09369226		-0.00010678		 0.00000026		 0.00004310
O		2.04655889		0.00000000		3.78509332		 0.00010634		 0.00000022		-0.00004306
O		3.29328049		3.08364955		1.09474449		-0.00014684		-0.00000014		 0.00004479
O		7.38944744		3.08365055		3.78404209		 0.00014699		-0.00000016		-0.00004475
O		3.56032105		0.00000000		1.27066572		 0.00006359		 0.00000039		-0.00006016
O		7.12240588		0.00000000		3.60811986		-0.00006351		 0.00000029		 0.00005986
O		8.90298649		3.08364955		1.26987881		 0.00017133		-0.00000013		-0.00007097
O		1.77974245		3.08364955		3.60890878		-0.00017150		-0.00000035		 0.00007090
O		1.02252921		1.77292553		1.09449425		 0.00011188		 0.00000915		 0.00001765
O		9.66019972		4.39437357		3.78429234		-0.00011159		-0.00000844		-0.00001756
O		9.66019872		1.77292654		3.78429234		-0.00011155		 0.00000864		-0.00001763
O		1.02252921		4.39437357		1.09449324		 0.00011149		-0.00000862		 0.00001746
O		6.36525696		4.85655196		1.09381185		 0.00013564		-0.00000133		-0.00000004
O		4.31747097		1.31074814		3.78497473		-0.00013602		 0.00000092		-0.00000009
O		4.31747197		4.85655196		3.78497574		-0.00013582		-0.00000105		-0.00000004
O		6.36525696		1.31074814		1.09381085		 0.00013652		 0.00000077		 0.00000028
