# total energy = -20636.7885415 eV

CRYSTAL
PRIMVEC
		10.10879253		0.00000000		0.00037185
		0.00000000		5.83398482		0.00000000
		-0.00004020		0.00000000		4.75570021
PRIMECORD
   28 1
Si		3.36997907		0.00000000		4.41043447		-0.00004676		-0.00000002		-0.00004053
Si		6.73878029		0.00000000		0.34563357		 0.00004677		 0.00000009		 0.00004146
Si		8.42449192		2.91699040		4.41057316		-0.00004968		-0.00000009		-0.00004674
Si		1.68426644		2.91699040		0.34549388		 0.00004974		0.00000000		 0.00004808
Mg		0.00000000		0.00000000		0.00000000		-0.00000004		 0.00000017		 0.00000001
Mg		5.05439928		2.91699040		0.00018492		-0.00000004		-0.00000011		 0.00000006
Mg		5.05437918		0.00000000		2.37803402		-0.00000045		 0.00000014		-0.00000033
Mg		-0.00001910		2.91698939		2.37784910		 0.00000051		-0.00000013		 0.00000031
Mg		2.52628559		1.45831430		2.37800689		-0.00000397		 0.00000071		 0.00000409
Mg		7.58247377		4.37566650		2.37806216		 0.00000391		-0.00000064		-0.00000416
Mg		7.58247277		1.45831430		2.37806216		 0.00000403		 0.00000062		-0.00000405
Mg		2.52628559		4.37566549		2.37800689		-0.00000403		-0.00000071		 0.00000403
O		8.23283239		0.00000000		1.06541658		 0.00011662		 0.00000012		 0.00006190
O		1.87592698		0.00000000		3.69065146		-0.00011662		 0.00000006		-0.00006217
O		3.17796779		2.91699040		1.06550904		 0.00009496		-0.00000002		 0.00006832
O		6.93079057		2.91699040		3.69055900		-0.00009491		-0.00000011		-0.00006864
O		3.36996500		0.00000000		1.26764369		-0.00010136		-0.00000008		 0.00002481
O		6.73879436		0.00000000		3.48842436		 0.00010146		 0.00000006		-0.00002514
O		8.42479543		2.91699040		1.26773816		-0.00008647		-0.00000005		 0.00001394
O		1.68396293		2.91698939		3.48833089		 0.00008660		 0.00000007		-0.00001514
O		0.93740471		1.62324887		1.06578341		-0.00002756		 0.00002853		-0.00002732
O		9.17135365		4.21073092		3.69028464		 0.00002783		-0.00002826		 0.00002731
O		9.17135365		1.62324887		3.69028464		 0.00002781		 0.00002782		 0.00002769
O		0.93740471		4.21073092		1.06578341		-0.00002757		-0.00002843		-0.00002744
O		5.99222910		4.54020811		1.06601054		-0.00001112		 0.00003122		-0.00003669
O		4.11653026		1.29377168		3.69005751		 0.00001084		-0.00003117		 0.00003659
O		4.11653026		4.54020811		3.69005751		 0.00001080		 0.00003127		 0.00003666
O		5.99222910		1.29377168		1.06601054		-0.00001127		-0.00003102		-0.00003693
