# total energy = -9214.53616507 eV	

CRYSTAL	
PRIMVEC	
		5.46655284		-0.00006391		-0.00003196	
		-2.73332968		4.73422788		0.00015978	
		-0.00003728		0.00019174		9.39730574	
PRIMCOORD
   18 1	
Mg		1.81451111		-0.00009427		4.07573832		-0.00012645		 0.00001389		 0.00024077	
Mg		-0.90724251		1.57133875		4.07588745		 0.00006430		-0.00009777		 0.00025239	
Mg		1.82600515		3.16267982		4.07580170		 0.00005869		 0.00011556		 0.00023336	
Si		-0.00003568		3.15619915		1.30898160		 0.00000211		-0.00002297		-0.00066933	
Si		2.73323914		1.57809904		1.30891769		 0.00000817		-0.00002054		-0.00066892	
H		3.61662436		0.00010332		6.04062850		 0.00007257		-0.00000872		-0.00020578	
H		-1.80879845		3.13299643		6.04080107		-0.00001778		 0.00002476		-0.00027940	
H		0.92508301		1.60251449		6.04059229		-0.00003738		-0.00007600		 0.00019258	
H		-0.00001225		0.00006711		2.05160491		-0.00000031		 0.00000577		 0.00030592	
O		-0.00002823		3.15614908		2.93239371		-0.00000325		-0.00000815		 0.00074829	
O		2.73324660		1.57805324		2.93233033		 0.00000472		-0.00000419		 0.00074794	
O		2.73219205		0.00022103		10.14711702		-0.00034588		 0.00002133		-0.00014116	
O		-1.36617858		2.36644872		10.14720969		 0.00017408		-0.00029145		-0.00014418	
O		1.36708506		2.36822654		10.14719904		 0.00016103		 0.00031174		-0.00014086	
O		3.63383800		-0.00023967		5.07923496		 0.00008431		 0.00001962		 0.00000557	
O		-1.81695948		3.14690687		5.07934947		-0.00004540		 0.00009386		 0.00007970	
O		0.91644157		1.58708560		5.07942456		-0.00005495		-0.00007132		-0.00041715	
O		0.00000000		0.00005379		3.01454939		 0.00000140		-0.00000541		-0.00013977	
