# total energy = -9215.13848986 eV	

CRYSTAL	
PRIMVEC	
		5.38526211		0.00000000		-0.00000533	
		-2.69262839		4.66377023		-0.00000533	
		-0.00000533		-0.00001065		7.69900421	
PRIMCOORD
   18 1	
Mg		1.78473345		-0.00001118		3.49645756		 0.00001173		-0.00000054		 0.00007773	
Mg		-0.89237338		1.54561310		3.49645969		-0.00000664		 0.00002852		 0.00007719	
Mg		1.80025821		3.11813636		3.49644691		-0.00000282		-0.00002299		 0.00007693	
Si		0.00000000		3.10918548		0.67651168		-0.00000273		-0.00001055		 0.00009952	
Si		2.69262946		1.55459061		0.67651168		 0.00000345		 0.00000851		 0.00009954	
H		3.52477590		-0.00001118		5.44914108		 0.00001354		-0.00000043		-0.00051693	
H		-1.76239940		3.05254347		5.44898770		 0.00000664		-0.00001228		 0.00004356	
H		0.93023165		1.61120492		5.44902977		 0.00000437		 0.00000749		-0.00010970	
H		0.00000000		0.00000000		1.44009067		 0.00000101		-0.00000041		 0.00008038	
O		0.00000000		3.10917376		2.29103630		-0.00000272		-0.00000126		-0.00000619	
O		2.69262786		1.55458369		2.29103683		-0.00000077		 0.00000364		-0.00000624	
O		2.74228215		-0.00001118		7.77229742		-0.00050643		 0.00000017		 0.00002453	
O		-1.37115040		2.37488031		7.77229529		 0.00025296		-0.00044181		 0.00003135	
O		1.32148332		2.28887181		7.77229103		 0.00025202		 0.00044066		 0.00003022	
O		3.57520300		-0.00001491		4.48596493		-0.00002759		 0.00000336		 0.00037394	
O		-1.78761162		3.09620815		4.48612631		 0.00000200		 0.00000240		-0.00022684	
O		0.90504021		1.56757007		4.48608103		-0.00000231		-0.00000319		-0.00006276	
O		0.00000000		-0.00000639		2.40163228		 0.00000428		-0.00000130		-0.00008622	
