# total energy = -24714.7232173 eV

CRYSTAL
PRIMVEC
		9.20099977		0.00000000		0.00000000
		0.00000000		8.62099635		0.00000000
		-0.97849872		0.00000000		4.68923433
PRIMECORD
   40 1
Si		2.54259968		0.78882195		0.99036617		 0.00055597		-0.00010924		-0.00020812
Si		5.67990229		7.83217900		3.69886816		-0.00055597		 0.00010924		 0.00020812
Si		6.16915073		0.78882195		1.35425099		-0.00055620		-0.00010899		 0.00020795
Si		2.05335124		7.83217900		3.33498334		 0.00055620		 0.00010899		-0.00020795
Si		7.14309956		5.09932197		0.99036617		 0.00053783		-0.00012082		-0.00021689
Si		1.07940241		3.52167898		3.69886816		-0.00053783		 0.00012082		 0.00021689
Si		1.56865085		5.09932197		1.35425099		-0.00053814		-0.00012052		 0.00021666
Si		6.65385112		3.52167898		3.33498334		 0.00053814		 0.00012052		-0.00021666
Mg		-0.24462422		7.80804017		1.17230766		-0.00000002		 0.00074875		-0.00000000
Mg		-0.73387266		0.81295986		3.51692483		 0.00000002		-0.00074875		0.00000000
Mg		4.35587567		3.49754016		1.17230766		-0.00000001		 0.00074997		-0.00000001
Mg		3.86662722		5.12345987		3.51692483		 0.00000001		-0.00074997		 0.00000001
Mg		-0.24462422		2.36387762		1.17230766		-0.00000004		-0.00057079		 0.00000002
Mg		-0.73387266		6.25712149		3.51692483		 0.00000004		 0.00057079		-0.00000002
Mg		4.35587567		6.67437763		1.17230766		-0.00000000		-0.00057211		-0.00000000
Mg		3.86662722		1.94662240		3.51692483		0.00000000		 0.00057211		0.00000000
O		0.98190953		0.78795890		0.65180342		-0.00033936		-0.00002739		 0.00020143
O		7.24059152		7.83304113		4.03742998		 0.00033936		 0.00002739		-0.00020143
O		7.72984088		0.78795890		1.69281282		 0.00033956		-0.00002730		-0.00020144
O		0.49266109		7.83304113		2.99641967		-0.00033956		 0.00002730		 0.00020144
O		5.58241126		5.09845983		0.65180342		-0.00032770		-0.00002620		 0.00020460
O		2.64009163		3.52254112		4.03742998		 0.00032770		 0.00002620		-0.00020460
O		3.12934099		5.09845983		1.69281282		 0.00032792		-0.00002619		-0.00020454
O		5.09316190		3.52254112		2.99641967		-0.00032792		 0.00002619		 0.00020454
O		3.13727133		2.04834957		1.72094856		 0.00084098		-0.00052687		 0.00086581
O		5.08523064		6.57265046		2.96828485		-0.00084098		 0.00052687		-0.00086581
O		5.57448000		2.04834957		0.62366769		-0.00084089		-0.00052710		-0.00086568
O		2.64802197		6.57265046		4.06556572		 0.00084089		 0.00052710		 0.00086568
O		7.73777122		6.35884959		1.72094856		 0.00084873		-0.00051489		 0.00087206
O		0.48473075		2.26214952		2.96828485		-0.00084873		 0.00051489		-0.00087206
O		0.97398011		6.35884959		0.62366769		-0.00084855		-0.00051526		-0.00087192
O		7.24852278		2.26214952		4.06556572		 0.00084855		 0.00051526		 0.00087192
O		2.38943063		0.52846678		4.29064886		 0.00018887		 0.00066775		-0.00064428
O		5.83307042		8.09253325		0.39858455		-0.00018887		-0.00066775		 0.00064428
O		5.34382197		0.52846678		2.74320171		-0.00018882		 0.00066767		 0.00064420
O		2.87867999		8.09253325		1.94603169		 0.00018882		-0.00066767		-0.00064420
O		6.98993144		4.83896680		4.29064886		 0.00019200		 0.00066817		-0.00064417
O		1.23257053		3.78203323		0.39858455		-0.00019200		-0.00066817		 0.00064417
O		0.74332209		4.83896680		2.74320171		-0.00019199		 0.00066822		 0.00064413
O		7.47918080		3.78203323		1.94603169		 0.00019199		-0.00066822		-0.00064413
