# total energy = -24715.1483522 eV	

CRYSTAL	
PRIMVEC	
		9.53870002		0.00000000		0.00000000	
		0.00000000		8.66009990		0.00000000	
		-1.68714803		0.00000000		4.85958611	
PRIMCOORD
   40 1	
Mg		-0.42178796		7.83046288		1.21489653		 0.00000002		 0.00035256		-0.00000003	
Mg		-1.26536388		0.82963702		3.64468959		-0.00000002		-0.00035256		 0.00000003	
Mg		4.34756205		3.50041293		1.21489653		 0.00000004		 0.00037952		-0.00000004	
Mg		3.50398613		5.15968697		3.64468959		-0.00000004		-0.00037952		 0.00000004	
Mg		-0.42178796		2.47332482		1.21489653		-0.00000005		-0.00084494		-0.00000009	
Mg		-1.26536388		6.18677508		3.64468959		 0.00000005		 0.00084494		 0.00000009	
Mg		4.34756205		6.80337477		1.21489653		-0.00000004		-0.00088040		-0.00000010	
Mg		3.50398613		1.85672513		3.64468959		 0.00000004		 0.00088040		 0.00000010	
Si		2.37296148		0.79655585		1.19400010		 0.00021684		 0.00017545		 0.00026582	
Si		5.47858670		7.86354405		3.66558602		-0.00021684		-0.00017545		-0.00026582	
Si		6.32216262		0.79655585		1.23579296		-0.00021730		 0.00017661		-0.00026638	
Si		1.52938461		7.86354405		3.62379411		 0.00021730		-0.00017661		 0.00026638	
Si		7.14231149		5.12660581		1.19400010		-0.00012017		-0.00004822		 0.00010436	
Si		0.70923669		3.53349410		3.66558602		 0.00012017		 0.00004822		-0.00010436	
Si		1.55281261		5.12660581		1.23579296		 0.00011919		-0.00004702		-0.00010510	
Si		6.29873462		3.53349410		3.62379411		-0.00011919		 0.00004702		 0.00010510	
O		0.84504584		0.71705556		0.67062307		-0.00064500		-0.00015588		-0.00066285	
O		7.00650234		7.94304339		4.18896304		 0.00064500		 0.00015588		 0.00066285	
O		7.85007827		0.71705556		1.75916998		 0.00064545		-0.00015596		 0.00066306	
O		0.00146991		7.94304339		3.10041613		-0.00064545		 0.00015596		-0.00066306	
O		5.61439585		5.04710742		0.67062307		-0.00043666		-0.00013297		-0.00058777	
O		2.23715233		3.61299439		4.18896304		 0.00043666		 0.00013297		 0.00058777	
O		3.08072825		5.04710742		1.75916998		 0.00043739		-0.00013305		 0.00058809	
O		4.77081993		3.61299439		3.10041613		-0.00043739		 0.00013305		-0.00058809	
O		2.93192644		2.23170764		1.54486306		-0.00011343		 0.00042668		-0.00035637	
O		4.91962174		6.42839321		3.31472401		 0.00011343		-0.00042668		 0.00035637	
O		5.76319766		2.23170764		0.88493096		 0.00011372		 0.00042590		 0.00035662	
O		2.08834861		6.42839321		3.97465611		-0.00011372		-0.00042590		-0.00035662	
O		7.70127645		6.56175664		1.54486306		 0.00000767		 0.00064861		-0.00028827	
O		0.15027173		2.09834231		3.31472401		-0.00000767		-0.00064861		 0.00028827	
O		0.99384765		6.56175664		0.88493096		-0.00000728		 0.00064762		 0.00028856	
O		6.85769958		2.09834231		3.97465611		 0.00000728		-0.00064762		-0.00028856	
O		3.33603347		0.05629073		0.12537667		 0.00037452		 0.00059621		-0.00026447	
O		4.51551471		8.60380917		4.73420944		-0.00037452		-0.00059621		 0.00026447	
O		5.35909063		0.05629073		2.30441638		-0.00037475		 0.00059586		 0.00026488	
O		2.49245659		8.60380917		2.55517068		 0.00037475		-0.00059586		-0.00026488	
O		8.10538348		4.38634068		0.12537667		 0.00041250		 0.00060425		-0.00024170	
O		-0.25383530		4.27375922		4.73420944		-0.00041250		-0.00060425		 0.00024170	
O		0.58974062		4.38634068		2.30441638		-0.00041264		 0.00060408		 0.00024184	
O		7.26180660		4.27375922		2.55517068		 0.00041264		-0.00060408		-0.00024184	
