# total energy = -24711.3018548 eV	

CRYSTAL	
PRIMVEC	
		9.53870002		0.00000000		0.00000000	
		0.00000000		8.66009990		0.00000000	
		-1.68714803		0.00000000		4.48577400	
PRIMCOORD
   40 1	
Mg		-0.42178796		7.83046288		1.12144302		-0.00000290		 0.00010208		0.00000000	
Mg		-1.26536388		0.82963702		3.36432907		 0.00000290		-0.00010208		-0.00000000	
Mg		4.34756205		3.50041293		1.12144302		-0.00000259		 0.00014407		-0.00000081	
Mg		3.50398613		5.15968697		3.36432907		 0.00000259		-0.00014407		 0.00000081	
Mg		-0.42178796		2.47332482		1.12144302		 0.00000667		 0.00008333		 0.00000490	
Mg		-1.26536388		6.18677508		3.36432907		-0.00000667		-0.00008333		-0.00000490	
Mg		4.34756205		6.80337477		1.12144302		 0.00000674		 0.00000934		 0.00000436	
Mg		3.50398613		1.85672513		3.36432907		-0.00000674		-0.00000934		-0.00000436	
Si		2.37296148		0.79655585		1.10215386		-0.00042517		 0.00072759		-0.00013606	
Si		5.47858670		7.86354405		3.38361823		 0.00042517		-0.00072759		 0.00013606	
Si		6.32216262		0.79655585		1.14073218		 0.00057221		 0.00045013		 0.00022756	
Si		1.52938461		7.86354405		3.34503991		-0.00057221		-0.00045013		-0.00022756	
Si		7.14231149		5.12660581		1.10215386		-0.00006234		 0.00032578		-0.00021333	
Si		0.70923669		3.53349410		3.38361823		 0.00006234		-0.00032578		 0.00021333	
Si		1.55281261		5.12660581		1.14073218		 0.00020028		 0.00006356		 0.00029696	
Si		6.29873462		3.53349410		3.34503991		-0.00020028		-0.00006356		-0.00029696	
O		0.84504584		0.71705556		0.61903683		 0.00023177		-0.00008398		 0.00033278	
O		7.00650234		7.94304339		3.86673526		-0.00023177		 0.00008398		-0.00033278	
O		7.85007827		0.71705556		1.62384921		-0.00033113		-0.00006845		-0.00036103	
O		0.00146991		7.94304339		2.86192288		 0.00033113		 0.00006845		 0.00036103	
O		5.61439585		5.04710742		0.61903683		-0.00009519		-0.00006993		 0.00025215	
O		2.23715233		3.61299439		3.86673526		 0.00009519		 0.00006993		-0.00025215	
O		3.08072825		5.04710742		1.62384921		 0.00000023		-0.00005385		-0.00027964	
O		4.77081993		3.61299439		2.86192288		-0.00000023		 0.00005385		 0.00027964	
O		2.93192644		2.23170764		1.42602707		-0.00046616		-0.00020528		 0.00004473	
O		4.91962174		6.42839321		3.05974502		 0.00046616		 0.00020528		-0.00004473	
O		5.76319766		2.23170764		0.81685898		 0.00039007		 0.00001051		-0.00014654	
O		2.08834861		6.42839321		3.66891311		-0.00039007		-0.00001051		 0.00014654	
O		7.70127645		6.56175664		1.42602707		-0.00039621		 0.00009371		 0.00015540	
O		0.15027173		2.09834231		3.05974502		 0.00039621		-0.00009371		-0.00015540	
O		0.99384765		6.56175664		0.81685898		 0.00032528		 0.00029658		-0.00025040	
O		6.85769958		2.09834231		3.66891311		-0.00032528		-0.00029658		 0.00025040	
O		3.33603347		0.05629073		0.11573305		-0.00033654		-0.00005086		-0.00028576	
O		4.51551471		8.60380917		4.37003904		 0.00033654		 0.00005086		 0.00028576	
O		5.35909063		0.05629073		2.12715300		 0.00034213		 0.00000575		 0.00024941	
O		2.49245659		8.60380917		2.35861909		-0.00034213		-0.00000575		-0.00024941	
O		8.10538348		4.38634068		0.11573305		-0.00045950		-0.00007254		-0.00026609	
O		-0.25383530		4.27375922		4.37003904		 0.00045950		 0.00007254		 0.00026609	
O		0.58974062		4.38634068		2.12715300		 0.00046508		-0.00001805		 0.00023164	
O		7.26180660		4.27375922		2.35861909		-0.00046508		 0.00001805		-0.00023164	
