# total energy = -18501.6223338 eV	

CRYSTAL	
PRIMVEC	
		7.02599999		0.00000000		0.00000000	
		0.00000000		6.22800096		-0.74736264	
		-0.43440353		-0.50877374		4.23980456	
PRIMCOORD
   30 1	
Mg		0.16677405		1.28327782		2.09417518		 0.00020994		-0.00004587		-0.00000246	
Mg		6.42482381		4.43594519		1.39827025		-0.00020994		 0.00004587		 0.00000246	
Mg		4.73063390		1.09045206		3.70106002		-0.00035113		-0.00074541		 0.00092329	
Mg		1.86096467		4.62877165		-0.20861599		 0.00035113		 0.00074541		-0.00092329	
Mg		2.80620688		1.53563066		-0.00876775		-0.00025286		 0.00015911		-0.00034492	
Mg		3.78539099		4.18359164		3.50121177		 0.00025286		-0.00015911		 0.00034492	
Si		0.00000000		0.00000000		0.00000000		0.00000000		0.00000000		0.00000000	
Si		0.00000000		3.11399978		-0.37367992		0.00000000		0.00000000		0.00000000	
Si		2.07748702		2.84408475		1.97791666		 0.00050990		 0.00078959		-0.00033744	
Si		4.51411084		2.87513896		1.51452807		-0.00050990		-0.00078959		 0.00033744	
Si		4.51411084		-0.21395013		1.88521772		 0.00046816		-0.00006609		 0.00022640	
Si		2.07748702		5.93317314		1.60722630		-0.00046816		 0.00006609		-0.00022640	
O		5.50377634		3.41645081		0.17505068		 0.00075384		-0.00055402		 0.00057139	
O		1.08782223		2.30277220		3.31739334		-0.00075384		 0.00055402		-0.00057139	
O		1.08782223		-0.06386775		3.60138988		 0.00045562		-0.00069888		 0.00047197	
O		5.50377634		5.78309075		-0.10894586		-0.00045562		 0.00069888		-0.00047197	
O		5.86321666		2.41330031		2.44748602		-0.00025243		 0.00004393		 0.00028327	
O		0.72838120		3.30592410		1.04495801		 0.00025243		-0.00004393		-0.00028327	
O		0.72838120		5.68501974		0.75946704		 0.00014167		 0.00043581		 0.00020211	
O		5.86321666		0.03420327		2.73297699		-0.00014167		-0.00043581		-0.00020211	
O		1.96359767		1.33873474		1.63203581		 0.00023235		-0.00004173		-0.00041571	
O		4.62800090		4.38048897		1.86040821		-0.00023235		 0.00004173		 0.00041571	
O		3.11234796		3.33290675		0.61548814		 0.00034453		-0.00002681		-0.00028127	
O		3.47924990		2.38631626		2.87695589		-0.00034453		 0.00002681		 0.00028127	
O		3.47924990		-0.04260426		3.16842669		-0.00040503		 0.00075170		-0.00013516	
O		3.11234796		5.76182727		0.32401734		 0.00040503		-0.00075170		 0.00013516	
O		4.38877614		1.39775314		1.14021933		-0.00014042		 0.00000142		 0.00006129	
O		2.20282173		4.32147127		2.35222610		 0.00014042		-0.00000142		-0.00006129	
O		6.82103681		1.49798184		0.30497688		 0.00022405		 0.00021483		 0.00003280	
O		-0.22943895		4.22124187		3.18746715		-0.00022405		-0.00021483		-0.00003280	
