# total energy = -92468.727025 eV

CRYSTAL
PRIMVEC
		18.49999946		0.00000000		0.00000000
		0.00000000		17.89998897		0.00000000
		0.00000000		0.00000000		5.27000235
PRIMECORD
   164 1
Mg		2.40499993		3.04299831		2.00259904		 0.00080569		-0.00046695		-0.00191514
Mg		16.09499953		14.85699066		3.26739960		-0.00084188		 0.00025918		 0.00165183
Mg		6.84499980		14.85699066		4.63760021		-0.00112786		 0.00088251		-0.00094162
Mg		11.65499966		3.04299831		0.63240028		 0.00184287		-0.00003646		-0.00065632
Mg		16.09499953		11.99299280		3.26739960		-0.00035292		-0.00100515		 0.00183954
Mg		2.40499993		5.90699618		2.00259904		 0.00085785		 0.00029987		-0.00129425
Mg		11.65499966		5.90699618		0.63240028		 0.00141354		 0.00048163		 0.00102073
Mg		6.84499980		11.99299280		4.63760021		-0.00153342		 0.00000968		-0.00041531
Mg		2.40499993		1.43199986		4.58489927		-0.00143991		 0.00231779		 0.00284132
Mg		16.09499953		16.46799097		0.68509938		 0.00141363		-0.00221791		-0.00273963
Mg		6.84499980		16.46799097		1.94989994		 0.00091587		-0.00030118		 0.00258013
Mg		11.65499966		1.43199986		3.32010055		-0.00170856		-0.00073624		-0.00218560
Mg		16.09499953		10.38199435		0.68509938		 0.00105615		 0.00218992		-0.00323798
Mg		2.40499993		7.51799648		4.58489927		-0.00184605		-0.00165852		 0.00267544
Mg		11.65499966		7.51799648		3.32010055		-0.00121219		-0.00063235		-0.00185644
Mg		6.84499980		10.38199435		1.94989994		 0.00139256		 0.00067463		 0.00202384
Mg		2.40499993		17.54198994		2.00259904		-0.00267054		-0.00046157		-0.00296267
Mg		16.09499953		0.35800089		3.26739960		 0.00263717		 0.00050280		 0.00297960
Mg		6.84499980		0.35800089		4.63760021		 0.00090552		 0.00031946		-0.00113810
Mg		11.65499966		17.54198994		0.63240028		-0.00147006		-0.00082422		 0.00154025
Mg		16.09499953		8.59199545		3.26739960		 0.00144334		-0.00064901		 0.00249663
Mg		2.40499993		9.30799538		2.00259904		-0.00245355		 0.00096219		-0.00294027
Mg		11.65499966		9.30799538		0.63240028		-0.00213139		-0.00035658		 0.00183870
Mg		6.84499980		8.59199545		4.63760021		 0.00231629		 0.00023190		-0.00183742
Mg		2.40499993		4.47499817		4.58489927		-0.00129825		 0.00000446		-0.00209059
Mg		16.09499953		13.42499266		0.68509938		 0.00154905		-0.00012770		 0.00187620
Mg		6.84499980		13.42499266		1.94989994		 0.00115981		 0.00037930		-0.00049447
Mg		11.65499966		4.47499817		3.32010055		-0.00049704		-0.00005334		 0.00128933
Si		0.55499998		14.67799207		1.52829976		-0.00155304		 0.00069656		-0.00076357
Si		17.94500132		3.22199876		3.74170074		-0.00017223		 0.00073647		 0.00018528
Si		8.69499974		3.22199876		4.16329908		-0.00159610		-0.00140037		-0.00156211
Si		9.80499786		14.67799207		1.10669957		-0.00161175		 0.00401440		-0.00082118
Si		17.94500132		5.72799758		3.74170074		 0.00024093		 0.00013826		 0.00167111
Si		0.55499998		12.17199324		1.52829976		-0.00381951		-0.00262467		 0.00090556
Si		9.80499786		12.17199324		1.10669957		-0.00110876		-0.00100989		 0.00079622
Si		8.69499974		5.72799758		4.16329908		 0.00130443		 0.00362184		-0.00094329
Si		0.55499998		16.46799097		4.16329908		-0.00004289		 0.00121143		-0.00052044
Si		17.94500132		1.43199986		1.10669957		 0.00051797		-0.00028513		 0.00038700
Si		8.69499974		1.43199986		1.52829976		-0.00096519		-0.00201700		-0.00092738
Si		9.80499786		16.46799097		3.74170074		-0.00216278		-0.00064228		-0.00067279
Si		17.94500132		7.51799648		1.10669957		 0.00190853		-0.00120246		 0.00121289
Si		0.55499998		10.38199435		4.16329908		-0.00479672		 0.00070317		 0.00100942
Si		9.80499786		10.38199435		3.74170074		-0.00136952		-0.00125219		 0.00142180
Si		8.69499974		7.51799648		1.52829976		 0.00062435		 0.00208107		-0.00055857
Si		4.06999988		16.46799097		0.21080009		-0.00106559		-0.00087479		-0.00013488
Si		14.42999773		1.43199986		5.05920040		 0.00074274		 0.00157257		 0.00029161
Si		5.17999985		1.43199986		2.84579942		-0.00122878		 0.00181377		-0.00053252
Si		13.32000146		16.46799097		2.42419923		 0.00180003		-0.00119090		 0.00035961
Si		14.42999773		7.51799648		5.05920040		 0.00042851		-0.00332910		 0.00055657
Si		4.06999988		10.38199435		0.21080009		 0.00010746		 0.00302222		-0.00032505
Si		13.32000146		10.38199435		2.42419923		 0.00094497		-0.00250162		 0.00011043
Si		5.17999985		7.51799648		2.84579942		-0.00051333		 0.00245231		-0.00014155
Si		4.06999988		14.67799207		2.84579942		-0.00125033		-0.00020847		-0.00038788
Si		14.42999773		3.22199876		2.42419923		 0.00146825		 0.00047389		 0.00065623
Si		5.17999985		3.22199876		0.21080009		-0.00033495		-0.00210907		-0.00058743
Si		13.32000146		14.67799207		5.05920040		 0.00174948		 0.00158557		 0.00040842
Si		14.42999773		5.72799758		2.42419923		 0.00022352		 0.00124705		 0.00053089
Si		4.06999988		12.17199324		2.84579942		-0.00039047		-0.00057507		-0.00016174
Si		13.32000146		12.17199324		5.05920040		-0.00005892		 0.00043415		 0.00065421
Si		5.17999985		5.72799758		0.21080009		 0.00194580		-0.00139463		-0.00079243
O		1.10999997		1.25299941		1.05400047		 0.00324638		 0.00115879		 0.00243848
O		17.38999949		16.64699141		4.21600003		-0.00289118		-0.00111008		-0.00263694
O		8.13999976		16.64699141		3.68899979		-0.00163904		-0.00051051		 0.00452389
O		10.35999970		1.25299941		1.58100070		 0.00159754		-0.00024353		-0.00169684
O		17.38999949		10.20299390		4.21600003		-0.00151339		 0.00166836		-0.00417371
O		1.10999997		7.69699507		1.05400047		 0.00244847		 0.00012229		 0.00180544
O		10.35999970		7.69699507		1.58100070		 0.00223003		-0.00121467		-0.00358681
O		8.13999976		10.20299390		3.68899979		-0.00152391		 0.00095840		 0.00348553
O		1.10999997		3.22199876		3.68899979		 0.00024512		-0.00014748		-0.00228620
O		17.38999949		14.67799207		1.58100070		 0.00198265		-0.00008823		 0.00225999
O		8.13999976		14.67799207		1.05400047		-0.00001114		-0.00006526		-0.00218163
O		10.35999970		3.22199876		4.21600003		 0.00093342		-0.00083912		 0.00146450
O		17.38999949		12.17199324		1.58100070		 0.00198274		-0.00069378		 0.00205027
O		1.10999997		5.72799758		3.68899979		 0.00003615		 0.00129215		-0.00224893
O		10.35999970		5.72799758		4.21600003		-0.00136127		-0.00020619		 0.00243983
O		8.13999976		12.17199324		1.05400047		 0.00252026		 0.00089136		-0.00188883
O		1.10999997		13.42499266		1.05400047		 0.00135590		 0.00116132		-0.00254748
O		17.38999949		4.47499817		4.21600003		-0.00029039		-0.00004328		 0.00390488
O		8.13999976		4.47499817		3.68899979		-0.00147007		-0.00048387		-0.00281589
O		10.35999970		13.42499266		1.58100070		 0.00161655		-0.00260188		 0.00154525
O		1.10999997		4.47499817		1.05400047		-0.00063032		 0.00021172		 0.00133565
O		17.38999949		13.42499266		4.21600003		 0.00137703		-0.00000431		-0.00182998
O		8.13999976		13.42499266		3.68899979		 0.00212203		 0.00009415		 0.00079243
O		10.35999970		4.47499817		1.58100070		-0.00159420		-0.00082386		-0.00047642
O		1.10999997		0.00000000		3.68899979		-0.00292239		 0.00165731		 0.00361291
O		17.38999949		0.00000000		1.58100070		 0.00159778		 0.00002583		 0.00127543
O		8.13999976		0.00000000		1.05400047		-0.00157856		-0.00829524		-0.00929564
O		10.35999970		0.00000000		4.21600003		 0.00330009		 0.01056305		-0.01553776
O		17.38999949		8.94999449		1.58100070		-0.00115528		 0.01201101		 0.01174882
O		1.10999997		8.94999449		3.68899979		 0.00121508		-0.00933435		 0.01278190
O		10.35999970		8.94999449		4.21600003		-0.00170997		-0.00352129		 0.00219511
O		8.13999976		8.94999449		1.05400047		 0.00105300		-0.00015506		 0.00305734
O		0.92499997		15.57299059		0.26349919		 0.00063066		-0.00060241		-0.00339834
O		17.57499948		2.32699838		5.00649945		-0.00050038		-0.00013290		 0.00375452
O		8.32499976		2.32699838		2.89850036		-0.00072774		-0.00052291		-0.00254929
O		10.17499970		15.57299059		2.37150013		 0.00061982		-0.00196046		 0.00360044
O		17.57499948		6.62299611		5.00649945		-0.00010996		 0.00175104		 0.00322899
O		0.92499997		11.27699287		0.26349919		 0.00062014		 0.00122515		-0.00394741
O		10.17499970		11.27699287		2.37150013		 0.00144728		 0.00142364		 0.00140637
O		8.32499976		6.62299611		2.89850036		-0.00079642		-0.00133254		-0.00097225
O		0.92499997		15.57299059		2.84579942		 0.00099090		-0.00078955		 0.00192513
O		17.57499948		2.32699838		2.42419923		-0.00063594		 0.00041247		-0.00350093
O		8.32499976		2.32699838		0.21080009		-0.00116479		 0.00285877		 0.00297504
O		10.17499970		15.57299059		5.05920040		 0.00109596		 0.00070550		-0.00123398
O		17.57499948		6.62299611		2.42419923		-0.00095773		-0.00084799		-0.00349150
O		0.92499997		11.27699287		2.84579942		 0.00039722		-0.00175646		 0.00090082
O		10.17499970		11.27699287		5.05920040		 0.00175632		 0.00260107		-0.00108212
O		8.32499976		6.62299611		0.21080009		-0.00136130		-0.00227430		 0.00118763
O		3.51499990		3.22199876		0.26349919		 0.00052493		-0.00058896		-0.00051255
O		14.98499956		14.67799207		5.00649945		-0.00182496		 0.00059758		 0.00011289
O		5.73499983		14.67799207		2.89850036		-0.00073021		 0.00077849		-0.00095464
O		12.76499963		3.22199876		2.37150013		-0.00085756		-0.00261785		 0.00125097
O		14.98499956		12.17199324		5.00649945		-0.00129744		-0.00029263		 0.00046063
O		3.51499990		5.72799758		0.26349919		-0.00054435		 0.00138082		-0.00080972
O		12.76499963		5.72799758		2.37150013		 0.00051243		 0.00108389		 0.00137153
O		5.73499983		12.17199324		2.89850036		-0.00053257		-0.00113097		-0.00054430
O		3.51499990		1.25299941		2.95119946		 0.00082854		 0.00165002		 0.00096041
O		14.98499956		16.64699141		2.31879918		-0.00134413		-0.00115439		-0.00135377
O		5.73499983		16.64699141		0.31620014		-0.00131085		-0.00091685		 0.00147243
O		12.76499963		1.25299941		4.95380035		-0.00003522		 0.00052271		-0.00129496
O		14.98499956		10.20299390		2.31879918		-0.00247662		 0.00160394		-0.00135595
O		3.51499990		7.69699507		2.95119946		 0.00164977		-0.00144686		 0.00105907
O		12.76499963		7.69699507		4.95380035		-0.00004179		-0.00062054		-0.00086889
O		5.73499983		10.20299390		0.31620014		-0.00006111		 0.00061044		 0.00129079
O		3.51499990		0.00000000		0.26349919		 0.00151090		-0.00021693		-0.00083703
O		14.98499956		0.00000000		5.00649945		-0.00165834		-0.00001690		 0.00085230
O		5.73499983		0.00000000		2.89850036		-0.00159283		-0.00208624		-0.00008613
O		12.76499963		0.00000000		2.37150013		 0.00138161		 0.00130951		 0.00002532
O		14.98499956		8.94999449		5.00649945		-0.00156063		 0.00223104		 0.00050017
O		3.51499990		8.94999449		0.26349919		 0.00149382		-0.00179092		-0.00038188
O		12.76499963		8.94999449		2.37150013		 0.00225634		 0.00129710		 0.00050338
O		5.73499983		8.94999449		2.89850036		-0.00228033		-0.00154201		-0.00041477
O		3.51499990		13.42499266		2.37150013		-0.00108374		 0.00022825		-0.00069775
O		14.98499956		4.47499817		2.89850036		-0.00004256		-0.00214256		 0.00109735
O		5.73499983		4.47499817		5.00649945		-0.00067005		 0.00280982		-0.00118323
O		12.76499963		13.42499266		0.26349919		-0.00019681		-0.00139359		 0.00106641
O		3.51499990		4.47499817		2.89850036		-0.00108391		 0.00031511		 0.00210614
O		14.98499956		13.42499266		2.37150013		 0.00121953		-0.00050564		-0.00242894
O		5.73499983		13.42499266		0.26349919		 0.00123169		 0.00062283		 0.00075229
O		12.76499963		4.47499817		5.00649945		-0.00080765		 0.00015336		-0.00043870
O		3.69999989		15.57299059		1.58100070		 0.00077570		-0.00131738		-0.00109139
O		14.79999957		2.32699838		3.68899979		-0.00129528		 0.00143618		 0.00195468
O		5.54999984		2.32699838		4.21600003		-0.00073225		 0.00080910		-0.00131501
O		12.94999962		15.57299059		1.05400047		 0.00069526		-0.00109160		 0.00137907
O		14.79999957		6.62299611		3.68899979		-0.00089649		-0.00042378		 0.00209268
O		3.69999989		11.27699287		1.58100070		 0.00118458		 0.00054316		-0.00190872
O		12.94999962		11.27699287		1.05400047		 0.00036075		 0.00163052		 0.00022465
O		5.54999984		6.62299611		4.21600003		-0.00074196		-0.00169327		-0.00059918
O		3.69999989		15.57299059		4.21600003		 0.00009755		-0.00252859		 0.00080605
O		14.79999957		2.32699838		1.05400047		-0.00073493		 0.00223728		-0.00096831
O		5.54999984		2.32699838		1.58100070		-0.00031862		 0.00237958		 0.00096185
O		12.94999962		15.57299059		3.68899979		 0.00007831		-0.00226419		-0.00098027
O		14.79999957		6.62299611		1.05400047		-0.00044810		-0.00180878		-0.00132219
O		3.69999989		11.27699287		4.21600003		 0.00057741		 0.00161612		 0.00155084
O		12.94999962		11.27699287		3.68899979		-0.00032221		 0.00297554		 0.00006976
O		5.54999984		6.62299611		1.58100070		-0.00029801		-0.00296416		 0.00007943
H		17.94500132		0.00000000		0.79049943		-0.00056974		 0.00161047		-0.00527400
H		0.55499813		0.00000000		4.47949922		 0.00276521		-0.00400920		-0.00495924
H		9.80499786		0.00000000		3.42550060		 0.00123010		-0.00893773		 0.00856244
H		8.69500159		0.00000000		1.84449990		 0.00415581		 0.00868151		 0.00880521
H		0.55499813		8.94999449		4.47949922		 0.00400118		 0.00785235		-0.00434918
H		17.94500132		8.94999449		0.79049943		-0.00103726		-0.01154718		-0.00824265
H		8.69500159		8.94999449		1.84449990		-0.00049093		-0.00205437		-0.00258740
H		9.80499786		8.94999449		3.42550060		 0.00042303		 0.00477025		-0.00319788
