# total energy = -92492.8591276 eV

CRYSTAL
PRIMVEC
		18.03566797		0.00007400		0.00038850
		0.00007400		17.52904549		0.00000000
		0.00011100		0.00000000		5.16688335
PRIMECORD
   164 1
Mg		2.31338238		3.07640746		2.01050039		-0.00046936		 0.00017050		-0.00026183
Mg		15.72248169		14.45272498		3.15677701		 0.00045555		-0.00017598		 0.00026171
Mg		6.70853270		14.45301728		4.59248612		 0.00042927		-0.00021393		-0.00020739
Mg		11.32732582		3.07612071		0.57479128		-0.00041064		 0.00019192		 0.00020855
Mg		15.72247429		11.84098570		3.15677146		 0.00044110		 0.00017905		 0.00027689
Mg		2.31338978		5.68814303		2.01050594		-0.00045635		-0.00017601		-0.00027586
Mg		11.32732952		5.68850933		0.57478758		-0.00039286		-0.00020997		 0.00022485
Mg		6.70852715		11.84061200		4.59248982		 0.00041258		 0.00023438		-0.00022287
Mg		2.40163478		1.43505421		4.59472647		-0.00020319		-0.00045369		 0.00003596
Mg		15.63423114		16.09407638		0.57255463		 0.00018765		 0.00045345		-0.00003989
Mg		6.61743501		16.09396168		2.01080934		 0.00013043		 0.00044985		-0.00002153
Mg		11.41842351		1.43517446		3.15646991		-0.00011665		-0.00046931		 0.00001787
Mg		15.63421079		10.19963430		0.57255278		 0.00016315		-0.00045671		-0.00004427
Mg		2.40165513		7.32949628		4.59472832		-0.00018138		 0.00045503		 0.00003973
Mg		11.41844201		7.32945373		3.15647361		-0.00008120		 0.00047025		 0.00001139
Mg		6.61741651		10.19966945		2.01080564		 0.00009742		-0.00044929		-0.00001551
Mg		2.39600338		17.41558684		1.90759414		-0.00040268		-0.00025658		-0.00046461
Mg		15.63985884		0.11354190		3.25968510		 0.00039307		 0.00025746		 0.00046295
Mg		6.62300351		0.11349010		4.49075092		 0.00037659		 0.00016131		-0.00048391
Mg		11.41285502		17.41564789		0.67652648		-0.00036658		-0.00018684		 0.00048906
Mg		15.63990694		8.65112700		3.25968510		 0.00036749		-0.00026941		 0.00047428
Mg		2.39595713		8.87800359		1.90759414		-0.00037939		 0.00026692		-0.00047521
Mg		11.41280692		8.87802024		0.67652093		-0.00033190		 0.00020034		 0.00049686
Mg		6.62305346		8.65110110		4.49075647		 0.00034431		-0.00017386		-0.00049121
Mg		2.28807253		4.38227617		4.59988797		-0.00038601		-0.00000378		 0.00060701
Mg		15.74779154		13.14685441		0.56738758		 0.00037006		 0.00000274		-0.00060403
Mg		6.73089365		13.14681186		2.01544174		 0.00043300		 0.00001335		 0.00062078
Mg		11.30496302		4.38231687		3.15183566		-0.00041133		-0.00001207		-0.00061418
Si		0.42266209		14.56985032		1.50808851		-0.00000259		 0.00016910		-0.00004013
Si		17.61320753		2.95927656		3.65919074		-0.00002790		-0.00015450		 0.00004155
Si		8.59390280		2.95929506		4.09099738		 0.00033162		-0.00033275		-0.00002123
Si		9.44186507		14.56987992		1.07627632		 0.00001137		 0.00017136		 0.00003698
Si		17.61327413		5.80548668		3.65917039		-0.00021220		-0.00011238		 0.00011080
Si		0.42259734		11.72364391		1.50810886		 0.00017940		 0.00011207		-0.00011318
Si		9.44177812		11.72366241		1.07624672		 0.00027075		 0.00022323		 0.00012921
Si		8.59398605		5.80542563		4.09102698		 0.00007995		-0.00006696		-0.00011505
Si		0.41894359		15.94979303		4.11427038		-0.00019546		-0.00023162		-0.00009296
Si		17.61692233		1.57933385		1.05300887		 0.00017897		 0.00024225		 0.00009059
Si		8.59840755		1.57957250		1.53065666		 0.00041046		 0.00013947		-0.00006647
Si		9.43735292		15.94960433		3.63661149		-0.00004085		-0.00030421		 0.00010267
Si		17.61695008		7.18536094		1.05300332		 0.00016693		-0.00028405		 0.00011024
Si		0.41892139		10.34377520		4.11427593		-0.00020762		 0.00026443		-0.00011120
Si		9.43731777		10.34403235		3.63659484		-0.00000075		 0.00038068		 0.00014488
Si		8.59843900		7.18504829		1.53067331		 0.00038996		-0.00020996		-0.00010736
Si		4.07992328		16.10396093		0.26055029		-0.00001431		-0.00017385		-0.00020009
Si		13.95597039		1.42516226		4.90672711		-0.00010953		 0.00019797		 0.00019778
Si		4.93914651		1.42473676		2.84386432		-0.00034348		-0.00001637		-0.00010582
Si		13.09676567		16.10439938		2.32341123		 0.00015395		-0.00000728		 0.00011975
Si		13.95595929		7.33948073		4.90673081		 0.00002215		-0.00016549		 0.00018656
Si		4.07993438		10.18965355		0.26054844		-0.00014217		 0.00014711		-0.00019115
Si		13.09674902		10.18928170		2.32340568		 0.00012496		 0.00003032		 0.00012252
Si		4.93916501		7.33984148		2.84386802		-0.00031618		-0.00001140		-0.00011046
Si		4.02840263		14.59319362		2.89727566		-0.00004779		-0.00029841		-0.00008181
Si		14.00747994		2.93593881		2.27000358		-0.00002152		 0.00028379		 0.00007997
Si		4.99074670		2.93582411		0.31358054		-0.00022786		 0.00006237		 0.00000526
Si		13.04517657		14.59333052		4.85369501		 0.00000147		-0.00015119		 0.00000625
Si		14.00752064		5.82863943		2.27001468		-0.00011625		-0.00004478		 0.00004112
Si		4.02836378		11.70047821		2.89726641		 0.00003956		 0.00008886		-0.00004943
Si		13.04511922		11.70042826		4.85370611		 0.00015211		-0.00008083		-0.00003573
Si		4.99080220		5.82868383		0.31357129		-0.00036830		 0.00014057		 0.00004126
O		1.15061117		1.26987141		1.07996152		 0.00019398		 0.00029573		 0.00017643
O		16.88524735		16.25926102		4.08731773		-0.00018471		-0.00030030		-0.00017678
O		7.86790732		16.25831382		3.66342539		-0.00026471		-0.00023248		 0.00021416
O		10.16802705		1.27079826		1.50385201		 0.00000048		 0.00029724		-0.00021135
O		16.88521405		10.03446446		4.08731773		-0.00015632		 0.00030203		-0.00017793
O		1.15064077		7.49466243		1.07996152		 0.00018410		-0.00029278		 0.00017779
O		10.16805665		7.49381328		1.50385571		-0.00000680		-0.00028912		-0.00021187
O		7.86788327		10.03533766		3.66342169		-0.00027236		 0.00022081		 0.00021478
O		1.16138557		2.76245692		3.69388379		-0.00009874		-0.00003519		 0.00019446
O		16.87446925		14.76667182		1.47339361		 0.00012128		 0.00003559		-0.00019506
O		7.85811527		14.76692157		1.11037922		 0.00005402		 0.00002132		 0.00018010
O		10.17782465		2.76219607		4.05689633		-0.00033788		 0.00002304		-0.00017222
O		16.87448405		11.52705551		1.47339546		 0.00002895		-0.00005871		-0.00019736
O		1.16137077		6.00207507		3.69388379		-0.00000133		 0.00005895		 0.00019723
O		10.17779875		6.00241177		4.05690188		-0.00020290		 0.00001633		-0.00017694
O		7.85814302		11.52673176		1.11037552		-0.00008840		-0.00006187		 0.00018535
O		1.03162472		13.14685996		1.07860917		-0.00026434		-0.00024146		-0.00010894
O		17.00423565		4.38227247		4.08867193		 0.00027276		 0.00022986		 0.00010581
O		7.98475147		4.38220402		3.66194169		 0.00020731		 0.00033185		-0.00013275
O		10.05113851		13.14692656		1.50535051		-0.00032068		-0.00032826		 0.00009074
O		1.14827832		4.38226507		1.06861177		 0.00018617		 0.00000998		-0.00066526
O		16.88758020		13.14686551		4.09866563		-0.00018092		-0.00000945		 0.00066899
O		7.87286717		13.14682851		3.64998884		-0.00022815		-0.00001883		-0.00068020
O		10.16300430		4.38230207		1.51728856		 0.00018423		 0.00001811		 0.00067985
O		1.13034257		-0.10473775		3.60511894		 0.00015621		-0.00043192		 0.00025041
O		16.90543455		0.10483025		1.56215105		-0.00012999		 0.00039777		-0.00024918
O		7.88812782		0.10456755		1.02134797		-0.00028700		 0.00056610		 0.00027102
O		10.14771405		-0.10453795		4.14592388		 0.00008045		-0.00036840		-0.00027670
O		16.90544565		8.65981275		1.56215290		-0.00003082		-0.00027296		-0.00024572
O		1.13040547		8.86930489		3.60512634		 0.00006745		 0.00031582		 0.00024656
O		10.14778250		8.86919389		4.14592573		-0.00002891		 0.00022690		-0.00027347
O		7.88813892		8.65999035		1.02135352		-0.00018394		-0.00042795		 0.00026731
O		0.99270627		15.74403234		0.46681604		-0.00000152		-0.00004708		-0.00024497
O		17.04315410		1.78509825		4.70046136		 0.00000677		 0.00004590		 0.00024789
O		8.02431556		1.78471345		3.04997836		-0.00002896		 0.00009537		-0.00017639
O		10.01156146		15.74440789		2.11728239		-0.00002567		-0.00006483		 0.00023862
O		17.04317445		6.97957620		4.70045951		 0.00000752		-0.00003500		 0.00025945
O		0.99268592		10.54955254		0.46681789		 0.00000197		 0.00003567		-0.00025401
O		10.01154111		10.54926209		2.11727314		-0.00002256		 0.00004063		 0.00026064
O		8.02433776		6.97987590		3.04998761		-0.00003561		-0.00007055		-0.00019670
O		1.02315357		14.99397391		2.96711131		-0.00010001		-0.00021397		-0.00000238
O		17.01270680		2.53515668		2.20016609		 0.00010542		 0.00021291		 0.00000171
O		7.99405142		2.53493283		0.38336439		-0.00001157		 0.00024847		-0.00001183
O		10.04183301		14.99417371		4.78394261		-0.00007226		-0.00016293		-0.00009124
O		17.01271975		6.22951222		2.20018089		 0.00011559		-0.00018810		-0.00004001
O		1.02314062		11.29961467		2.96709836		-0.00010529		 0.00019238		 0.00003528
O		10.04182191		11.29950552		4.78396111		-0.00008961		 0.00011311		-0.00016302
O		7.99406437		6.22964912		0.38334589		 0.00000191		-0.00020103		 0.00005712
O		3.39271675		2.87657972		0.30565884		 0.00013237		 0.00033460		 0.00007756
O		14.64309552		14.65254532		4.86161671		 0.00003954		-0.00031980		-0.00007500
O		5.62635118		14.65224007		2.88879712		 0.00014557		-0.00029707		 0.00002957
O		12.40949624		2.87688682		2.27848213		-0.00009335		 0.00031138		-0.00003299
O		14.64309922		11.64115796		4.86161486		-0.00001423		 0.00032818		-0.00007509
O		3.39271675		5.88797633		0.30566069		 0.00018242		-0.00034034		 0.00007758
O		12.40950549		5.88774693		2.27848028		-0.00008106		-0.00030959		-0.00003185
O		5.62634193		11.64138736		2.88879897		 0.00013526		 0.00029273		 0.00002836
O		3.32629065		1.37413741		2.82426172		 0.00002363		 0.00013321		-0.00015225
O		14.70953642		16.15499133		2.34301753		 0.00009695		-0.00012603		 0.00015267
O		5.69263853		16.15481373		0.24050369		 0.00017823		-0.00013196		-0.00013912
O		12.34320149		1.37431686		4.92677556		-0.00009886		 0.00013960		 0.00013676
O		14.70949757		10.13871195		2.34301568		 0.00013453		 0.00012599		 0.00014845
O		3.32632950		7.39041863		2.82426357		-0.00001162		-0.00013196		-0.00014838
O		12.34325884		7.39031873		4.92677741		-0.00020457		-0.00013599		 0.00013297
O		5.69258303		10.13881000		0.24049999		 0.00028032		 0.00012747		-0.00013552
O		3.44484605		0.04021900		0.23708304		-0.00014535		-0.00001981		 0.00021272
O		14.59092922		-0.04012280		4.93018696		 0.00018230		-0.00002831		-0.00021025
O		5.57392589		-0.04061305		2.82044147		 0.00017699		 0.00005693		 0.00026244
O		12.46184938		0.04070185		2.34683038		-0.00014605		-0.00007874		-0.00026161
O		14.59097362		8.80478984		4.93019066		 0.00016328		-0.00001266		-0.00021111
O		3.44487750		8.72432594		0.23708674		-0.00012735		 0.00005879		 0.00021367
O		12.46189378		8.72394114		2.34683223		-0.00016580		 0.00006115		-0.00025944
O		5.57396104		8.80518204		2.82044517		 0.00019695		-0.00003813		 0.00026036
O		3.37785940		13.14674341		2.64466927		-0.00008097		 0.00019993		 0.00013466
O		14.65799727		4.38239272		2.52260813		 0.00010564		-0.00022278		-0.00012944
O		5.64137873		4.38234832		5.22919320		 0.00021660		-0.00020225		 0.00006229
O		12.39446129		13.14677486		-0.06191025		-0.00014250		 0.00022548		-0.00007840
O		3.37484575		4.38227987		2.97395631		 0.00005328		-0.00000247		-0.00073712
O		14.66100722		13.14685071		2.19332109		-0.00002829		 0.00000384		 0.00073790
O		5.64663828		13.14681371		0.38842784		-0.00006551		-0.00000585		-0.00068140
O		12.38922764		4.38231687		4.77884956		 0.00006513		 0.00000436		 0.00068547
O		3.45819010		15.61893719		1.73446930		-0.00005796		-0.00014091		-0.00024719
O		14.57766657		1.91019154		3.43281180		 0.00007579		 0.00014498		 0.00023574
O		5.56078534		1.91007684		4.31757427		 0.00008561		 0.00023006		-0.00018480
O		12.47506578		15.61904819		0.84969758		-0.00005008		-0.00021138		 0.00021164
O		14.57769247		6.85446625		3.43281180		 0.00005932		-0.00014647		 0.00023180
O		3.45816420		10.67466619		1.73447115		-0.00004322		 0.00013968		-0.00024633
O		12.47504358		10.67463659		0.84969203		-0.00005143		 0.00020395		 0.00021070
O		5.56080754		6.85449770		4.31757982		 0.00008802		-0.00022027		-0.00018667
O		3.42177100		15.18656260		4.27764202		 0.00010414		-0.00016134		 0.00031677
O		14.61408567		2.34256428		0.88963167		-0.00008516		 0.00017443		-0.00030089
O		5.59702129		2.34157453		1.69381925		 0.00003676		 0.00039670		 0.00006384
O		12.43882798		15.18754495		3.47347110		 0.00000764		-0.00035651		-0.00010992
O		14.61410787		6.42208426		0.88962797		-0.00009979		-0.00017686		-0.00028782
O		3.42175065		11.10705002		4.27764387		 0.00011710		 0.00015852		 0.00031168
O		12.43880948		11.10614352		3.47346925		 0.00001131		 0.00034931		-0.00011061
O		5.59703979		6.42299446		1.69381925		 0.00003419		-0.00038492		 0.00007137
H		17.58337443		-0.59343373		1.55792935		 0.00063798		-0.00002699		 0.00012227
H		0.45241749		0.59350773		3.60934249		-0.00066451		 0.00005261		-0.00012231
H		9.46966687		0.59364833		4.14164113		-0.00059456		-0.00000691		 0.00011492
H		8.56606770		-0.59351883		1.02563072		 0.00078255		-0.00015623		-0.00011228
H		0.45242859		8.17099836		3.60934804		-0.00057511		 0.00004203		-0.00012180
H		17.58344288		9.35814148		1.55793305		 0.00053979		-0.00007530		 0.00012205
H		8.56613985		9.35814703		1.02563627		 0.00067813		 0.00004720		-0.00011240
H		9.46967057		8.17093546		4.14164113		-0.00048554		 0.00011939		 0.00011530
