# total energy = -92498.1362375 eV

CRYSTAL
PRIMVEC
		19.72508792		0.00003700		0.00379250
		0.00001850		18.28075596		-0.00001850
		0.00111000		0.00000000		5.38649684
PRIMECORD
   164 1
Mg		2.61120462		3.23527251		2.45522743		-0.00004144		 0.00051010		 0.00027735
Mg		17.11498960		15.04552416		2.93503971		 0.00006506		-0.00050779		-0.00027595
Mg		7.26258179		15.04585901		5.14683305		-0.00043017		-0.00048736		 0.00022888
Mg		12.46362538		3.23492471		0.24342854		 0.00042559		 0.00050501		-0.00021970
Mg		17.11498590		12.37565974		2.93504156		 0.00010049		 0.00014564		-0.00024806
Mg		2.61121202		5.90511843		2.45522373		-0.00007901		-0.00013012		 0.00025673
Mg		12.46364203		5.90551248		0.24342299		 0.00038735		-0.00025388		-0.00021854
Mg		7.26257994		12.37528234		5.14684415		-0.00041213		 0.00022820		 0.00020240
Mg		2.68370242		1.39961931		5.13344645		-0.00009870		-0.00017437		 0.00055878
Mg		17.04249735		16.88117180		0.25680959		 0.00011239		 0.00017994		-0.00055334
Mg		7.18525919		16.88019685		2.44021283		-0.00004601		 0.00027547		 0.00048870
Mg		12.54095168		1.40059241		2.95004876		 0.00004689		-0.00027408		-0.00048610
Mg		17.04248625		10.54001209		0.25681884		 0.00013054		 0.00002874		-0.00055347
Mg		2.68371167		7.74078087		5.13344275		-0.00011267		-0.00004287		 0.00055054
Mg		12.54096278		7.73983737		2.95003766		 0.00003049		 0.00004987		-0.00046812
Mg		7.18525364		10.54096669		2.44022208		-0.00005788		-0.00009946		 0.00048956
Mg		2.67915327		18.14603897		2.33461853		-0.00020538		 0.00031352		-0.00019524
Mg		17.04704650		0.13475770		3.05564676		 0.00021405		-0.00030635		 0.00018925
Mg		7.18850594		0.13512215		5.02911385		 0.00004352		-0.00036449		-0.00044967
Mg		12.53770678		18.14567082		0.36115329		-0.00004889		 0.00036368		 0.00045115
Mg		17.04705205		9.00566284		3.05563751		 0.00020396		 0.00051503		 0.00021572
Mg		2.67914032		9.27512643		2.33462963		-0.00018046		-0.00053454		-0.00021909
Mg		12.53768643		9.27552233		0.36115884		-0.00002777		-0.00058667		 0.00046966
Mg		7.18852074		9.00527619		5.02910460		 0.00002716		 0.00054291		-0.00047274
Mg		2.60489982		4.57019177		5.17711940		 0.00028699		-0.00012920		 0.00020552
Mg		17.12130365		13.71059195		0.21314959		-0.00026867		 0.00014988		-0.00021341
Mg		7.26650379		13.71057345		2.48234103		-0.00040053		 0.00013880		 0.00039071
Mg		12.45971263		4.57021212		2.90792426		 0.00037844		-0.00012208		-0.00039967
Si		0.14602420		15.25027290		1.23505996		 0.00023640		 0.00021004		-0.00020907
Si		19.58015893		3.03048861		4.15520903		-0.00015277		-0.00011142		 0.00019195
Si		9.71115107		3.03071246		3.93147003		-0.00037540		 0.00001267		-0.00020249
Si		10.01519116		15.24990845		1.45878416		-0.00007439		 0.00054560		 0.00025424
Si		19.58013118		6.10985977		4.15519978		-0.00004157		 0.00043114		 0.00023421
Si		0.14596500		12.17086289		1.23506736		 0.00041140		-0.00022367		-0.00023204
Si		10.01518191		12.17116074		1.45879896		-0.00001610		-0.00023949		 0.00021847
Si		9.71109927		6.10957487		3.93147188		-0.00020046		 0.00041627		-0.00023814
Si		0.26353804		16.69101031		3.96643688		-0.00002711		 0.00025981		-0.00011775
Si		19.46260438		1.58979190		1.42382101		 0.00022830		-0.00029764		 0.00013455
Si		9.59625127		1.59046160		1.27648146		-0.00002015		-0.00026081		-0.00011353
Si		10.13000955		16.69030546		4.11376903		-0.00015486		 0.00032083		 0.00016781
Si		19.46261918		7.55066933		1.42382656		 0.00020811		 0.00026584		 0.00012985
Si		0.26354174		10.73012549		3.96645168		-0.00005456		-0.00030808		-0.00015997
Si		10.13003545		10.73086364		4.11377458		-0.00025870		-0.00039322		 0.00016034
Si		9.59638447		7.55002923		1.27644816		-0.00041283		 0.00001239		-0.00001903
Si		4.49507622		16.78907326		0.61598338		-0.00013797		 0.00000400		 0.00020821
Si		15.23115130		1.49170121		4.77428006		 0.00009040		 0.00005686		-0.00020179
Si		5.37325269		1.49076141		3.30864350		 0.00016071		 0.00013896		 0.00013029
Si		14.35298038		16.78999641		2.08162734		-0.00023524		-0.00004134		-0.00015471
Si		15.23112355		7.64870823		4.77427821		 0.00019376		-0.00004203		-0.00020144
Si		4.49509287		10.63211249		0.61598153		-0.00021255		-0.00006053		 0.00022190
Si		14.35294523		10.63116714		2.08162734		-0.00013623		 0.00010349		-0.00013537
Si		5.37326194		7.64965173		3.30864350		 0.00014735		-0.00019016		 0.00011849
Si		4.58473832		15.24421415		3.34494605		 0.00027684		-0.00003909		 0.00027897
Si		15.14146331		3.03657696		2.04531924		-0.00026332		 0.00004259		-0.00028257
Si		5.28369049		3.03600901		0.65106123		-0.00005087		 0.00020717		 0.00022936
Si		14.44252038		15.24474325		4.73920776		 0.00004955		-0.00007695		-0.00024801
Si		15.14144111		6.10385097		2.04531924		-0.00018405		-0.00004390		-0.00028469
Si		4.58476237		12.17695124		3.34494420		 0.00020032		-0.00000349		 0.00028822
Si		14.44249818		12.17642584		4.73921331		 0.00011183		 0.00011595		-0.00024087
Si		5.28370344		6.10434862		0.65105013		-0.00007988		-0.00005700		 0.00024980
O		1.30022436		1.17892357		1.40955936		 0.00016408		 0.00040569		 0.00014435
O		18.42601056		17.10185090		3.98069853		-0.00029428		-0.00037381		-0.00014558
O		8.56688540		17.09897045		4.10464483		-0.00033524		-0.00043965		 0.00020331
O		11.15929772		1.18182807		1.28562231		 0.00043385		 0.00041793		-0.00020402
O		18.42600131		10.31934595		3.98071333		-0.00029151		 0.00037643		-0.00015137
O		1.30022621		7.96145997		1.40955011		 0.00018444		-0.00039310		 0.00015237
O		11.15921077		7.95856472		1.28560381		 0.00071194		-0.00031679		-0.00020127
O		8.56685395		10.32218570		4.10466333		-0.00024922		 0.00047010		 0.00020024
O		1.44169201		2.74071942		4.15176063		-0.00003289		 0.00013553		-0.00025673
O		18.28454106		15.54006799		1.23850651		-0.00006097		-0.00011953		 0.00025730
O		8.42837960		15.53893209		1.45926516		 0.00030005		-0.00011491		-0.00032648
O		11.29772582		2.74187197		3.93100198		 0.00001480		 0.00003770		 0.00032624
O		18.28458731		11.88111590		1.23851206		-0.00017373		 0.00009040		 0.00025851
O		1.44170681		6.39968076		4.15176618		-0.00008061		-0.00014062		-0.00026243
O		11.29774247		6.39854671		3.93099458		-0.00002276		-0.00003674		 0.00032759
O		8.42839070		11.88222405		1.45926331		 0.00028656		 0.00008665		-0.00032384
O		0.62128178		13.71057900		1.36143531		 0.00005684		-0.00003235		-0.00020415
O		19.10493649		4.57030462		4.02881888		-0.00010405		-0.00027770		 0.00019766
O		9.23458738		4.57033052		4.05884438		 0.00001588		-0.00041790		-0.00022474
O		10.49159389		13.71065855		1.33142461		 0.00008032		-0.00026350		 0.00021952
O		1.52289036		4.57021397		1.44108891		 0.00011764		-0.00002505		 0.00051262
O		18.20333902		13.71057715		3.94918563		-0.00014900		 0.00001294		-0.00051621
O		8.34990260		13.71058085		4.13221538		-0.00003572		-0.00000474		 0.00031641
O		11.37629162		4.57021027		1.25804806		 0.00007619		-0.00000770		-0.00031633
O		1.24009751		-0.15759410		3.95725903		 0.00046123		-0.00022517		 0.00008390
O		18.48607821		0.15768290		1.43300071		-0.00039907		 0.00002249		-0.00003805
O		8.62383025		0.15559610		1.26703166		-0.00021094		-0.00008823		 0.00004688
O		11.10236212		-0.15558870		4.12325583		 0.00023083		 0.00012857		-0.00004296
O		18.48605416		8.98271914		1.43296371		-0.00032156		 0.00013676		 0.00000197
O		1.24015856		9.29802018		3.95728863		 0.00031673		-0.00000163		 0.00002202
O		11.10231772		9.29588158		4.12325953		 0.00042421		 0.00021002		-0.00011828
O		8.62379510		8.98476709		1.26703721		-0.00009117		 0.00027467		 0.00000834
O		0.81666583		15.91074508		-0.11680530		 0.00038697		 0.00027856		-0.00032339
O		18.90955060		2.37004788		5.50707984		-0.00042857		-0.00024919		 0.00028688
O		9.04061303		2.36943368		2.57995257		-0.00032119		-0.00032410		-0.00038464
O		10.68558489		15.91137593		2.81035157		 0.00035458		 0.00024958		 0.00027837
O		18.90955985		6.77039485		5.50710019		-0.00041638		 0.00021084		 0.00025448
O		0.81665843		11.51036666		-0.11685525		 0.00037730		-0.00017268		-0.00018478
O		10.68557379		11.50979501		2.81035157		 0.00038752		-0.00025018		 0.00030270
O		9.04059268		6.77093875		2.57999327		-0.00024888		 0.00041686		-0.00056063
O		0.79850438		16.11480933		2.51245533		 0.00034376		-0.00004019		 0.00012977
O		18.92771389		2.16596329		2.87780812		-0.00037936		 0.00006212		-0.00010165
O		9.05872453		2.16477559		-0.17751674		-0.00033741		 0.00009853		 0.00008508
O		10.66746969		16.11601923		5.56778019		 0.00036584		-0.00012416		-0.00005539
O		18.92771204		6.97448870		2.87780997		-0.00036775		-0.00004339		-0.00009220
O		0.79851733		11.30630242		2.51247753		 0.00032221		 0.00006176		 0.00006606
O		10.66746044		11.30512767		5.56778204		 0.00039840		 0.00010401		-0.00005372
O		9.05872268		6.97563385		-0.17755189		-0.00030050		-0.00003402		 0.00016688
O		3.66783209		2.90694191		0.65738638		-0.00024213		-0.00042847		 0.00015041
O		16.05837323		15.37385290		4.73287706		 0.00023728		 0.00041829		-0.00015076
O		6.20096857		15.37279285		3.35063665		-0.00000260		 0.00030203		 0.00008416
O		13.52524600		2.90800011		2.03962309		-0.00001431		-0.00030856		-0.00007805
O		16.05838433		12.04733285		4.73287706		 0.00019740		-0.00043742		-0.00014539
O		3.66783394		6.23346012		0.65738638		-0.00023211		 0.00043259		 0.00014878
O		13.52527190		6.23242042		2.03963049		-0.00007153		 0.00034035		-0.00008491
O		6.20094637		12.04836330		3.35063480		 0.00005478		-0.00032143		 0.00008513
O		3.73678529		1.29999681		3.32206340		 0.00031910		-0.00053091		-0.00010926
O		15.98940708		16.98079430		2.06819634		-0.00028240		 0.00052594		 0.00011032
O		6.13140302		16.98012830		0.62914798		-0.00029104		 0.00056789		-0.00003281
O		13.59480230		1.30066466		4.76111916		 0.00029927		-0.00056534		 0.00003018
O		15.98942003		10.44038774		2.06820929		-0.00034006		-0.00051683		 0.00010527
O		3.73678714		7.84039782		3.32205600		 0.00032500		 0.00053207		-0.00010756
O		13.59483005		7.83975032		4.76110806		 0.00024065		 0.00058110		 0.00003788
O		6.13137897		10.44103154		0.62915538		-0.00024347		-0.00055940		-0.00003223
O		3.64401889		-0.11286110		0.61506578		 0.00000508		-0.00000670		-0.00062008
O		16.08216423		0.11290735		4.77521246		 0.00002713		-0.00004963		 0.00062171
O		6.22433962		0.11222100		3.30860835		 0.00008880		-0.00015928		-0.00052650
O		13.50183980		-0.11217105		2.08167729		-0.00004540		 0.00009240		 0.00052344
O		16.08218273		9.02750949		4.77519211		-0.00000684		 0.00002067		 0.00062995
O		3.64401334		9.25325758		0.61506948		 0.00003488		 0.00004985		-0.00062516
O		13.50185460		9.25261193		2.08167359		-0.00009364		-0.00013540		 0.00051679
O		6.22434702		9.02815514		3.30859725		 0.00011071		 0.00020313		-0.00052655
O		4.05005318		13.71057160		3.19248201		-0.00068299		 0.00002119		-0.00030107
O		15.67615954		4.57021212		2.19777959		 0.00067549		 0.00000357		 0.00030125
O		5.81825353		4.57022877		5.88627433		 0.00093567		-0.00011888		-0.00030908
O		13.90796289		13.71060120		-0.49600904		-0.00095151		-0.00001420		 0.00030923
O		3.57240355		4.57020472		3.48900370		-0.00015952		-0.00002441		-0.00075192
O		16.15380918		13.71059010		1.90127084		 0.00014854		 0.00000620		 0.00074499
O		6.30063917		13.71057900		0.79394968		-0.00002161		 0.00000246		-0.00079922
O		13.42556986		4.57020657		4.59631192		 0.00002483		-0.00000906		 0.00079643
O		3.95510933		16.19205792		2.11207279		-0.00000712		-0.00017462		 0.00024707
O		15.77109784		2.08873689		3.27819065		 0.00001012		 0.00016675		-0.00024234
O		5.91363768		2.08875354		4.80413906		 0.00001352		 0.00017987		 0.00020686
O		13.81256209		16.19204497		0.58613363		 0.00000056		-0.00020852		-0.00023162
O		15.77110894		7.05168364		3.27819250		-0.00000833		-0.00015323		-0.00024507
O		3.95510008		11.22910007		2.11206909		 0.00000848		 0.00017583		 0.00026504
O		13.81256209		11.22915742		0.58614103		-0.00001886		 0.00017111		-0.00022025
O		5.91365248		7.05163369		4.80412796		 0.00000163		-0.00016445		 0.00021409
O		3.99196318		15.88023673		4.73657706		-0.00022945		-0.00013773		 0.00000264
O		15.73424769		2.40055808		0.65369008		 0.00022853		 0.00012860		-0.00000984
O		5.87723708		2.39900408		2.04196334		 0.00016538		 0.00006917		 0.00008534
O		13.84896824		15.88180183		3.34828160		-0.00015720		-0.00011724		-0.00002372
O		15.73425879		6.73986615		0.65369008		 0.00020926		-0.00012131		-0.00001067
O		3.99195208		11.54091386		4.73658631		-0.00021435		 0.00015716		-0.00003151
O		13.84896824		11.53939131		3.34830010		-0.00017378		 0.00008990		-0.00005749
O		5.87724633		6.74139055		2.04196149		 0.00015114		-0.00006984		 0.00007933
H		19.02416919		-0.62709078		1.64632235		 0.00051118		-0.00020020		 0.00012376
H		0.70203983		0.62706488		3.74397994		-0.00060658		 0.00035742		-0.00016770
H		10.56198269		0.62734608		4.33805192		-0.00041080		 0.00009079		 0.00008957
H		9.16421893		-0.62731463		1.05222632		 0.00041102		-0.00011716		-0.00009160
H		0.70200838		8.51323910		3.74396699		-0.00046387		-0.00016350		-0.00011231
H		19.02418769		9.76757791		1.64630940		 0.00042595		 0.00007546		 0.00009269
H		9.16424113		9.76777031		1.05221337		 0.00029741		-0.00002554		-0.00005409
H		10.56205299		8.51312810		4.33801862		-0.00061596		-0.00038198		 0.00015872
