# total energy = -9075.71946935 eV

CRYSTAL
PRIMVEC
		5.19731284		0.00000000		0.00442283
		0.00000000		5.22801701		0.00000000
		0.00222931		0.00000000		7.39898817
PRIMECORD
   28 1
Mg		3.90649283		2.66047227		1.85724310		 0.00017283		-0.00054606		 0.00051379
Mg		1.29304983		0.04646325		5.54616892		-0.00017289		-0.00054593		-0.00051382
Si		1.30697587		0.04280125		1.84609552		 0.00032951		 0.00010711		-0.00014289
Si		3.89256679		2.65680975		5.55731650		-0.00032949		 0.00010707		 0.00014290
O		1.89893481		5.05218414		3.54239255		-0.00010606		 0.00036588		 0.00038625
O		3.30060785		2.43817564		3.86101947		 0.00010599		 0.00036601		-0.00038626
O		4.50151042		2.81829833		7.24861496		-0.00036473		 0.00034569		 0.00032277
O		0.69803173		0.20429085		0.15479706		 0.00036500		 0.00034532		-0.00032277
O		4.62872793		4.23510154		5.12131070		-0.00053210		-0.00032147		-0.00037859
O		0.57081473		1.62109355		2.28210133		 0.00053228		-0.00032131		 0.00037861
O		2.30723477		3.49589606		5.99703953		-0.00021027		-0.00050555		 0.00002875
O		2.89230789		0.88188807		1.40637249		 0.00020982		-0.00050534		-0.00002887
O		4.93785727		4.44489715		2.31292616		-0.00055323		-0.00037448		 0.00026527
O		0.26168539		1.83088814		5.09048535		 0.00055339		-0.00037446		-0.00026513
O		2.07861682		3.69801947		1.38176979		 0.00046980		 0.00081721		-0.00014993
O		3.12092585		1.08401045		6.02164223		-0.00046983		 0.00081733		 0.00014975
H		2.37785588		4.20168539		3.61415491		-0.00043612		 0.00028414		 0.00001344
H		2.82168627		1.58767689		3.78925660		 0.00043615		 0.00028411		-0.00001344
H		5.00345016		3.65675266		7.28604234		 0.00025082		-0.00001826		 0.00009617
H		0.19609199		1.04274467		0.11736968		-0.00025104		-0.00001789		-0.00009620
H		1.60373100		2.85572162		5.72360525		-0.00054400		-0.00030694		 0.00053072
H		3.59581166		0.24171414		1.67980677		 0.00054432		-0.00030722		-0.00053060
H		4.03010714		4.97310340		5.40896399		-0.00015215		-0.00019402		-0.00010592
H		1.16943553		2.35909490		1.99444803		 0.00015199		-0.00019416		 0.00010599
H		4.86383032		4.45983559		3.29709618		 0.00004032		 0.00080660		-0.00004787
H		0.33571286		1.84582708		4.10631585		-0.00004034		 0.00080660		 0.00004771
H		2.11951037		3.62555661		0.39295708		 0.00042257		-0.00046001		 0.00031293
H		3.08003229		1.01154760		7.01045494		-0.00042254		-0.00045997		-0.00031277
