# total energy = -9075.73179149 eV

CRYSTAL
PRIMVEC
		5.07566196		-0.00001023		0.00477052
		-0.00001023		5.12587772		0.00000000
		0.00291447		0.00000000		7.25813760
PRIMECORD
   28 1
Mg		3.81797126		2.60588174		1.82786988		 0.00015188		 0.00003892		-0.00031753
Mg		1.26059903		0.04294595		5.43504183		-0.00015227		 0.00003937		 0.00031703
Si		1.27662758		0.04062205		1.81120526		 0.00016750		 0.00023580		-0.00016373
Si		3.80194220		2.60355784		5.45170644		-0.00016592		 0.00023354		 0.00016258
O		1.89669834		4.94266614		3.48255547		 0.00002516		-0.00029251		-0.00023298
O		3.18185150		2.37970171		3.78035316		 0.00001442		-0.00021790		 0.00024228
O		4.43674841		2.78141242		7.11961196		-0.00008971		-0.00026033		 0.00001966
O		0.64183007		0.21846436		0.14330128		 0.00005753		-0.00020575		-0.00002499
O		4.50622879		4.17592713		4.99248000		 0.00001564		 0.00000250		 0.00029064
O		0.57233946		1.61299798		2.27043067		-0.00002799		-0.00000933		-0.00028734
O		2.22764170		3.41113518		5.91959089		-0.00041847		 0.00040069		 0.00015530
O		2.85091888		0.84819837		1.34331877		 0.00044141		 0.00038661		-0.00014978
O		4.79645193		4.36813418		2.29944598		 0.00030196		 0.00032684		-0.00065061
O		0.28211376		1.80520146		4.96346470		-0.00030812		 0.00032825		 0.00065328
O		2.01663479		3.60097947		1.33374091		-0.00037704		-0.00068755		 0.00021816
O		3.06193141		1.03803704		5.92917080		 0.00037896		-0.00068814		-0.00021949
H		2.34954363		4.07647528		3.55422017		-0.00027231		-0.00013472		 0.00031583
H		2.72903178		1.51355330		3.70869255		 0.00023571		-0.00020103		-0.00032123
H		4.91579629		3.63459351		7.16588500		-0.00067643		 0.00026605		-0.00041689
H		0.16276225		1.07167663		0.09702568		 0.00070559		 0.00021691		 0.00041967
H		1.52116159		2.77770951		5.61964161		 0.00000868		-0.00040509		-0.00017829
H		3.55741279		0.21476196		1.64327162		-0.00002504		-0.00039032		 0.00017178
H		3.91751872		4.91634441		5.31471473		-0.00010065		 0.00008681		 0.00002408
H		1.16104033		2.35340657		1.94819799		 0.00010945		 0.00009720		-0.00002859
H		4.71281695		4.38896955		3.28868257		-0.00017713		 0.00025326		-0.00044484
H		0.36574618		1.82603734		3.97422913		 0.00017798		 0.00025285		 0.00044273
H		2.06115507		3.51826946		0.33856341		 0.00024773		 0.00016380		 0.00002432
H		3.01741165		0.95532702		6.92434676		-0.00024852		 0.00016326		-0.00002101
