# total energy = -20638.8655622 eV	

CRYSTAL	
PRIMVEC	
		10.16464392		0.00000000		0.00009181	
		0.00000000		5.97067093		0.00000000	
		0.00004081		0.00000000		4.76281380	
PRIMCOORD
   28 1	
Mg		0.00000000		0.00000000		0.00000000		 0.00000018		-0.00000003		 0.00000002	
Mg		5.08234644		0.00000000		2.38145587		-0.00000011		0.00000000		 0.00000005	
Mg		0.00000000		2.98533444		0.00000000		 0.00000017		 0.00000002		 0.00000001	
Mg		5.08234644		2.98533342		2.38145587		-0.00000012		-0.00000002		 0.00000002	
Mg		2.80642008		1.49266722		4.72359856		 0.00014621		-0.00000000		-0.00041885	
Mg		7.35827179		4.47800064		0.03931317		-0.00014632		-0.00000001		 0.00041888	
Mg		2.27617630		4.47800064		2.34215086		-0.00021106		-0.00000002		-0.00041580	
Mg		7.88851556		1.49266722		2.42076190		 0.00021110		0.00000000		 0.00041582	
Si		0.95542630		1.49266722		2.02888596		-0.00011957		-0.00000001		-0.00036091	
Si		9.20926557		4.47800064		2.73402679		 0.00012073		 0.00000001		 0.00036028	
Si		4.12692831		4.47800064		4.41032959		 0.00013655		-0.00000017		-0.00036360	
Si		6.03776458		1.49266722		0.35258317		-0.00013753		 0.00000012		 0.00036284	
O		0.93304848		1.49266722		3.65203942		-0.00022148		-0.00000002		-0.00029013	
O		9.23164440		4.47800064		1.11087232		 0.00022081		0.00000000		 0.00029079	
O		4.14938569		4.47800064		1.27066210		 0.00020538		 0.00000002		-0.00029711	
O		6.01530617		1.49266722		3.49224964		-0.00020478		-0.00000003		 0.00029748	
O		4.52971465		1.49266722		1.06051918		-0.00004248		 0.00000004		-0.00003186	
O		5.63497823		4.47800064		3.70239358		 0.00004309		-0.00000004		 0.00003187	
O		0.55270932		4.47800064		3.44183223		 0.00002066		-0.00000003		-0.00002871	
O		9.61198356		1.49266722		1.32108053		-0.00002153		0.00000000		 0.00002863	
O		1.66424575		0.18792629		1.31364064		-0.00001839		 0.00016172		-0.00025310	
O		8.50044713		5.78274157		3.44927110		 0.00001798		-0.00016159		 0.00025315	
O		3.41817822		5.78274973		3.69506590		 0.00000010		-0.00016227		-0.00024740	
O		6.74651364		0.18791813		1.06784583		 0.00000032		 0.00016203		 0.00024749	
O		8.50044713		3.17326073		3.44927110		 0.00001797		 0.00016166		 0.00025314	
O		1.66424575		2.79740713		1.31364064		-0.00001835		-0.00016174		-0.00025312	
O		6.74651364		2.79741529		1.06784685		 0.00000023		-0.00016209		 0.00024740	
O		3.41817822		3.17325155		3.69506590		 0.00000025		 0.00016244		-0.00024727	
