# total energy = -12346.4984165 eV	

CRYSTAL	
PRIMVEC	
		4.44490009		0.00000000		0.00000000	
		0.00000000		4.54818179		0.00000000	
		0.00000000		0.00000000		6.45439942	
PRIMCOORD
   20 1	
O		0.47515982		2.16265992		1.61360008		 0.00018381		 0.00035850		-0.00000000	
O		3.96974027		2.38552099		4.84080023		-0.00018381		-0.00035850		-0.00000000	
O		2.69760987		0.11143009		4.84080023		 0.00018381		-0.00035850		0.00000000	
O		1.74729023		4.43674992		1.61360008		-0.00018381		 0.00035850		0.00000000	
O		0.83697513		0.88189218		3.62801813		 0.00016785		-0.00000106		-0.00012448	
O		3.60792496		3.66628828		2.82638218		-0.00016785		 0.00000106		 0.00012448	
O		3.05942518		1.39219783		2.82638218		 0.00016785		 0.00000106		 0.00012448	
O		1.38547491		3.15598219		3.62801813		-0.00016785		-0.00000106		-0.00012448	
O		3.60792496		3.66628828		0.40081798		-0.00016785		 0.00000106		-0.00012448	
O		0.83697513		0.88189218		6.05358233		 0.00016785		-0.00000106		 0.00012448	
O		1.38547491		3.15598219		6.05358233		-0.00016785		-0.00000106		 0.00012448	
O		3.05942518		1.39219783		0.40081798		 0.00016785		 0.00000106		-0.00012448	
Mg		2.30334723		2.64567699		1.61360008		-0.00010637		-0.00024941		0.00000000	
Mg		2.14155286		1.90250392		4.84080023		 0.00010637		 0.00024941		0.00000000	
Mg		0.08089718		4.17659392		4.84080023		-0.00010637		 0.00024941		0.00000000	
Mg		4.36400291		0.37158609		1.61360008		 0.00010637		-0.00024941		0.00000000	
Si		2.22245005		0.00000000		3.22720015		0.00000000		0.00000000		0.00000000	
Si		0.00000000		2.27409001		3.22720015		0.00000000		-0.00000000		-0.00000000	
Si		2.22245005		0.00000000		0.00000000		0.00000000		0.00000000		0.00000000	
Si		0.00000000		2.27409001		0.00000000		0.00000000		0.00000000		-0.00000000	
