# total energy = -12351.5124895 eV	

CRYSTAL	
PRIMVEC	
		4.44490009		0.00000000		0.00000000	
		0.00000000		5.13128157		0.00000000	
		0.00000000		0.00000000		6.45439942	
PRIMCOORD
   20 1	
O		0.47515982		2.43992390		1.61360008		-0.00006781		-0.00013423		-0.00000000	
O		3.96974027		2.69135723		4.84080023		 0.00006781		 0.00013423		-0.00000000	
O		2.69760987		0.12571600		4.84080023		-0.00006781		 0.00013423		-0.00000000	
O		1.74729023		5.00556423		1.61360008		 0.00006781		-0.00013423		-0.00000000	
O		0.83697513		0.99495488		3.62801813		 0.00004580		 0.00012157		-0.00018078	
O		3.60792496		4.13632491		2.82638218		-0.00004580		-0.00012157		 0.00018078	
O		3.05942518		1.57068501		2.82638218		 0.00004580		-0.00012157		 0.00018078	
O		1.38547491		3.56059522		3.62801813		-0.00004580		 0.00012157		-0.00018078	
O		3.60792496		4.13632491		0.40081798		-0.00004580		-0.00012157		-0.00018078	
O		0.83697513		0.99495488		6.05358233		 0.00004580		 0.00012157		 0.00018078	
O		1.38547491		3.56059522		6.05358233		-0.00004580		 0.00012157		 0.00018078	
O		3.05942518		1.57068501		0.40081798		 0.00004580		-0.00012157		-0.00018078	
Mg		2.30334723		2.98486598		1.61360008		-0.00038785		 0.00002837		-0.00000000	
Mg		2.14155286		2.14641425		4.84080023		 0.00038785		-0.00002837		-0.00000000	
Mg		0.08089718		4.71205415		4.84080023		-0.00038785		-0.00002837		-0.00000000	
Mg		4.36400291		0.41922609		1.61360008		 0.00038785		 0.00002837		-0.00000000	
Si		2.22245005		0.00000000		3.22720015		0.00000000		0.00000000		0.00000000	
Si		0.00000000		2.56563989		3.22720015		0.00000000		0.00000000		-0.00000000	
Si		2.22245005		0.00000000		0.00000000		0.00000000		0.00000000		0.00000000	
Si		0.00000000		2.56563989		0.00000000		0.00000000		0.00000000		0.00000000	
