# total energy = -12350.7052454 eV	

CRYSTAL	
PRIMVEC	
		4.44490009		0.00000000		0.00000000	
		0.00000000		4.89803988		0.00000000	
		0.00000000		0.00000000		6.45439942	
PRIMCOORD
   20 1	
O		0.47515982		2.32901786		1.61360008		 0.00007346		-0.00004986		0.00000000	
O		3.96974027		2.56902202		4.84080023		-0.00007346		 0.00004986		-0.00000000	
O		2.69760987		0.12000208		4.84080023		 0.00007346		 0.00004986		0.00000000	
O		1.74729023		4.77803824		1.61360008		-0.00007346		-0.00004986		0.00000000	
O		0.83697513		0.94972980		3.62801813		 0.00029170		 0.00026758		-0.00027073	
O		3.60792496		3.94831008		2.82638218		-0.00029170		-0.00026758		 0.00027073	
O		3.05942518		1.49929014		2.82638218		 0.00029170		-0.00026758		 0.00027073	
O		1.38547491		3.39875019		3.62801813		-0.00029170		 0.00026758		-0.00027073	
O		3.60792496		3.94831008		0.40081798		-0.00029170		-0.00026758		-0.00027073	
O		0.83697513		0.94972980		6.05358233		 0.00029170		 0.00026758		 0.00027073	
O		1.38547491		3.39875019		6.05358233		-0.00029170		 0.00026758		 0.00027073	
O		3.05942518		1.49929014		0.40081798		 0.00029170		-0.00026758		-0.00027073	
Mg		2.30334723		2.84918985		1.61360008		-0.00022402		-0.00001037		0.00000000	
Mg		2.14155286		2.04885003		4.84080023		 0.00022402		 0.00001037		0.00000000	
Mg		0.08089718		4.49786997		4.84080023		-0.00022402		 0.00001037		-0.00000000	
Mg		4.36400291		0.40016991		1.61360008		 0.00022402		-0.00001037		-0.00000000	
Si		2.22245005		0.00000000		3.22720015		0.00000000		0.00000000		0.00000000	
Si		0.00000000		2.44901994		3.22720015		0.00000000		0.00000000		0.00000000	
Si		2.22245005		0.00000000		0.00000000		0.00000000		0.00000000		0.00000000	
Si		0.00000000		2.44901994		0.00000000		0.00000000		0.00000000		0.00000000	
