# total energy = -38098.3970428 eV

CRYSTAL
PRIMVEC
		5.69209984		0.00000000		0.00000000
		0.00000000		11.74650184		0.00000000
		0.00000000		0.00000000		8.25299833
PRIMECORD
   58 1
O		1.53572911		1.44364516		8.19440386		-0.00055772		-0.00008421		-0.00008542
O		4.15637074		10.30285497		0.05859618		 0.00055772		 0.00008421		 0.00008542
O		4.15637074		4.42960462		8.19440386		 0.00055772		 0.00008421		-0.00008542
O		1.53572911		7.31689494		0.05859618		-0.00055772		-0.00008421		 0.00008542
O		1.53572911		10.30285497		0.05859618		-0.00055772		 0.00008421		 0.00008542
O		4.15637074		1.44364516		8.19440386		 0.00055772		-0.00008421		-0.00008542
O		4.15637074		7.31689494		0.05859618		 0.00055772		-0.00008421		 0.00008542
O		1.53572911		4.42960462		8.19440386		-0.00055772		 0.00008421		-0.00008542
O		2.84604992		5.74991166		6.23596689		0.00000000		 0.00009796		-0.00007356
O		2.84604992		5.99658791		2.01703315		0.00000000		-0.00009796		 0.00007356
O		2.84604992		0.12333813		6.23596689		0.00000000		-0.00009796		-0.00007356
O		2.84604992		11.62316144		2.01703315		0.00000000		 0.00009796		 0.00007356
O		0.00000000		2.93662489		5.91574985		0.00000000		0.00000000		-0.00041112
O		0.00000000		8.80987467		2.33725019		0.00000000		0.00000000		 0.00041112
O		0.00000000		2.93662489		1.80493071		0.00000000		0.00000000		 0.00040714
O		0.00000000		8.80987467		6.44806876		0.00000000		0.00000000		-0.00040714
O		2.84604992		8.80987467		5.93143101		0.00000000		0.00000000		 0.00038141
O		2.84604992		2.93662489		2.32156903		0.00000000		0.00000000		-0.00038141
O		2.84604992		8.80987467		1.78925011		0.00000000		0.00000000		 0.00044726
O		2.84604992		2.93662489		6.46374993		0.00000000		0.00000000		-0.00044726
O		0.00000000		11.62316144		2.10946716		0.00000000		 0.00019008		 0.00006809
O		0.00000000		0.12333813		6.14353402		0.00000000		-0.00019008		-0.00006809
O		0.00000000		5.99658791		2.10946716		0.00000000		-0.00019008		 0.00006809
O		0.00000000		5.74991166		6.14353402		0.00000000		 0.00019008		-0.00006809
O		4.38177903		7.31689494		4.06790412		-0.00075163		-0.00002612		-0.00047642
O		1.31032081		4.42960462		4.18509592		 0.00075163		 0.00002612		 0.00047642
O		1.31032081		10.30285497		4.06790412		 0.00075163		 0.00002612		-0.00047642
O		4.38177903		1.44364516		4.18509592		-0.00075163		-0.00002612		 0.00047642
O		4.38177903		4.42960462		4.18509592		-0.00075163		 0.00002612		 0.00047642
O		1.31032081		7.31689494		4.06790412		 0.00075163		-0.00002612		-0.00047642
O		1.31032081		1.44364516		4.18509592		 0.00075163		-0.00002612		 0.00047642
O		4.38177903		10.30285497		4.06790412		-0.00075163		 0.00002612		-0.00047642
H		2.84604992		8.80987467		4.88165013		0.00000000		0.00000000		 0.00021307
H		2.84604992		2.93662489		3.37135105		0.00000000		0.00000000		-0.00021307
H		0.00000000		2.93662489		2.85471273		0.00000000		0.00000000		 0.00032917
H		0.00000000		8.80987467		5.39828674		0.00000000		0.00000000		-0.00032917
Mg		2.84604992		5.87324978		4.12649974		0.00000000		0.00000000		0.00000000
Mg		2.84604992		0.00000000		4.12649974		0.00000000		0.00000000		0.00000000
Mg		0.00000000		0.00000000		0.00000000		0.00000000		0.00000000		-0.00000000
Mg		0.00000000		5.87324978		0.00000000		0.00000000		0.00000000		0.00000000
Mg		1.42302496		1.48475806		2.06325015		-0.00080027		 0.00037549		 0.00006107
Mg		4.26907488		10.26174264		6.18974989		 0.00080027		-0.00037549		-0.00006107
Mg		4.26907488		4.38849172		2.06325015		 0.00080027		-0.00037549		 0.00006107
Mg		1.42302496		7.35800784		6.18974989		-0.00080027		 0.00037549		-0.00006107
Mg		1.42302496		10.26174264		6.18974989		-0.00080027		-0.00037549		-0.00006107
Mg		4.26907488		1.48475806		2.06325015		 0.00080027		 0.00037549		 0.00006107
Mg		4.26907488		7.35800784		6.18974989		 0.00080027		 0.00037549		-0.00006107
Mg		1.42302496		4.38849172		2.06325015		-0.00080027		-0.00037549		 0.00006107
Mg		0.00000000		2.93662489		8.00623499		0.00000000		0.00000000		 0.00022590
Mg		0.00000000		8.80987467		0.24676505		0.00000000		0.00000000		-0.00022590
Si		2.84604992		7.28400485		0.96230014		0.00000000		-0.00005332		 0.00015262
Si		2.84604992		4.46249471		7.29070104		0.00000000		 0.00005332		-0.00015262
Si		2.84604992		10.33574449		0.96230014		0.00000000		 0.00005332		 0.00015262
Si		2.84604992		1.41075507		7.29070104		0.00000000		-0.00005332		-0.00015262
Si		0.00000000		1.41075507		5.08879987		0.00000000		-0.00009617		-0.00042524
Si		0.00000000		10.33574449		3.16420017		0.00000000		 0.00009617		 0.00042524
Si		0.00000000		4.46249471		5.08879987		0.00000000		 0.00009617		-0.00042524
Si		0.00000000		7.28400485		3.16420017		0.00000000		-0.00009617		 0.00042524
