# total energy = -38096.3647732 eV

CRYSTAL
PRIMVEC
		5.69209984		0.00000000		0.00000000
		0.00000000		10.88700046		0.00000000
		0.00000000		0.00000000		8.25299833
PRIMECORD
   58 1
O		1.53572911		1.33801174		8.19440386		-0.00058631		 0.00041785		-0.00025283
O		4.15637074		9.54898758		0.05859618		 0.00058631		-0.00041785		 0.00025283
O		4.15637074		4.10548792		8.19440386		 0.00058631		-0.00041785		-0.00025283
O		1.53572911		6.78151197		0.05859618		-0.00058631		 0.00041785		 0.00025283
O		1.53572911		9.54898758		0.05859618		-0.00058631		-0.00041785		 0.00025283
O		4.15637074		1.33801174		8.19440386		 0.00058631		 0.00041785		-0.00025283
O		4.15637074		6.78151197		0.05859618		 0.00058631		 0.00041785		 0.00025283
O		1.53572911		4.10548792		8.19440386		-0.00058631		-0.00041785		-0.00025283
O		2.84604992		5.32918579		6.23596689		0.00000000		-0.00009086		-0.00017559
O		2.84604992		5.55781410		2.01703315		0.00000000		 0.00009086		 0.00017559
O		2.84604992		0.11431387		6.23596689		0.00000000		 0.00009086		-0.00017559
O		2.84604992		10.77268545		2.01703315		0.00000000		-0.00009086		 0.00017559
O		0.00000000		2.72174983		5.91574985		0.00000000		0.00000000		-0.00008509
O		0.00000000		8.16525006		2.33725019		0.00000000		0.00000000		 0.00008509
O		0.00000000		2.72174983		1.80493071		0.00000000		0.00000000		 0.00058939
O		0.00000000		8.16525006		6.44806876		0.00000000		0.00000000		-0.00058939
O		2.84604992		8.16525006		5.93143101		0.00000000		0.00000000		 0.00073244
O		2.84604992		2.72174983		2.32156903		0.00000000		0.00000000		-0.00073244
O		2.84604992		8.16525006		1.78925011		0.00000000		0.00000000		 0.00084610
O		2.84604992		2.72174983		6.46374993		0.00000000		0.00000000		-0.00084610
O		0.00000000		10.77268545		2.10946716		0.00000000		-0.00019563		 0.00017557
O		0.00000000		0.11431387		6.14353402		0.00000000		 0.00019563		-0.00017557
O		0.00000000		5.55781410		2.10946716		0.00000000		 0.00019563		 0.00017557
O		0.00000000		5.32918579		6.14353402		0.00000000		-0.00019563		-0.00017557
O		4.38177903		6.78151197		4.06790412		-0.00060580		-0.00005317		-0.00030472
O		1.31032081		4.10548792		4.18509592		 0.00060580		 0.00005317		 0.00030472
O		1.31032081		9.54898758		4.06790412		 0.00060580		 0.00005317		-0.00030472
O		4.38177903		1.33801174		4.18509592		-0.00060580		-0.00005317		 0.00030472
O		4.38177903		4.10548792		4.18509592		-0.00060580		 0.00005317		 0.00030472
O		1.31032081		6.78151197		4.06790412		 0.00060580		-0.00005317		-0.00030472
O		1.31032081		1.33801174		4.18509592		 0.00060580		-0.00005317		 0.00030472
O		4.38177903		9.54898758		4.06790412		-0.00060580		 0.00005317		-0.00030472
H		2.84604992		8.16525006		4.88165013		0.00000000		0.00000000		 0.00005192
H		2.84604992		2.72174983		3.37135105		0.00000000		0.00000000		-0.00005192
H		0.00000000		2.72174983		2.85471273		0.00000000		0.00000000		-0.00025325
H		0.00000000		8.16525006		5.39828674		0.00000000		0.00000000		 0.00025325
Mg		2.84604992		5.44349966		4.12649974		0.00000000		-0.00000000		0.00000000
Mg		2.84604992		0.00000000		4.12649974		0.00000000		0.00000000		0.00000000
Mg		0.00000000		0.00000000		0.00000000		-0.00000000		0.00000000		-0.00000000
Mg		0.00000000		5.44349966		0.00000000		0.00000000		-0.00000000		-0.00000000
Mg		1.42302496		1.37611694		2.06325015		-0.00034072		 0.00013358		 0.00016377
Mg		4.26907488		9.51088295		6.18974989		 0.00034072		-0.00013358		-0.00016377
Mg		4.26907488		4.06738272		2.06325015		 0.00034072		-0.00013358		 0.00016377
Mg		1.42302496		6.81961660		6.18974989		-0.00034072		 0.00013358		-0.00016377
Mg		1.42302496		9.51088295		6.18974989		-0.00034072		-0.00013358		-0.00016377
Mg		4.26907488		1.37611694		2.06325015		 0.00034072		 0.00013358		 0.00016377
Mg		4.26907488		6.81961660		6.18974989		 0.00034072		 0.00013358		-0.00016377
Mg		1.42302496		4.06738272		2.06325015		-0.00034072		-0.00013358		 0.00016377
Mg		0.00000000		2.72174983		8.00623499		0.00000000		0.00000000		 0.00030750
Mg		0.00000000		8.16525006		0.24676505		0.00000000		0.00000000		-0.00030750
Si		2.84604992		6.75102907		0.96230014		0.00000000		 0.00006264		 0.00001950
Si		2.84604992		4.13597082		7.29070104		0.00000000		-0.00006264		-0.00001950
Si		2.84604992		9.57947048		0.96230014		0.00000000		-0.00006264		 0.00001950
Si		2.84604992		1.30752884		7.29070104		0.00000000		 0.00006264		-0.00001950
Si		0.00000000		1.30752884		5.08879987		0.00000000		 0.00006875		-0.00050317
Si		0.00000000		9.57947048		3.16420017		0.00000000		-0.00006875		 0.00050317
Si		0.00000000		4.13597082		5.08879987		0.00000000		-0.00006875		-0.00050317
Si		0.00000000		6.75102907		3.16420017		0.00000000		 0.00006875		 0.00050317
