# total energy = -38097.796235 eV

CRYSTAL
PRIMVEC
		5.69209984		0.00000000		0.00000000
		0.00000000		11.17350092		0.00000000
		0.00000000		0.00000000		8.25299833
PRIMECORD
   58 1
O		1.53572911		1.37322307		8.19440386		-0.00029147		 0.00036460		-0.00013956
O		4.15637074		9.80027671		0.05859618		 0.00029147		-0.00036460		 0.00013956
O		4.15637074		4.21352682		8.19440386		 0.00029147		-0.00036460		-0.00013956
O		1.53572911		6.95997296		0.05859618		-0.00029147		 0.00036460		 0.00013956
O		1.53572911		9.80027671		0.05859618		-0.00029147		-0.00036460		 0.00013956
O		4.15637074		1.37322307		8.19440386		 0.00029147		 0.00036460		-0.00013956
O		4.15637074		6.95997296		0.05859618		 0.00029147		 0.00036460		 0.00013956
O		1.53572911		4.21352682		8.19440386		-0.00029147		-0.00036460		-0.00013956
O		2.84604992		5.46942774		6.23596689		0.00000000		 0.00012621		-0.00032308
O		2.84604992		5.70407204		2.01703315		0.00000000		-0.00012621		 0.00032308
O		2.84604992		0.11732215		6.23596689		0.00000000		-0.00012621		-0.00032308
O		2.84604992		11.05617763		2.01703315		0.00000000		 0.00012621		 0.00032308
O		0.00000000		2.79337466		5.91574985		0.00000000		0.00000000		-0.00007150
O		0.00000000		8.38012455		2.33725019		0.00000000		0.00000000		 0.00007150
O		0.00000000		2.79337466		1.80493071		0.00000000		0.00000000		 0.00016685
O		0.00000000		8.38012455		6.44806876		0.00000000		0.00000000		-0.00016685
O		2.84604992		8.38012455		5.93143101		0.00000000		0.00000000		-0.00011675
O		2.84604992		2.79337466		2.32156903		0.00000000		0.00000000		 0.00011675
O		2.84604992		8.38012455		1.78925011		0.00000000		0.00000000		 0.00059177
O		2.84604992		2.79337466		6.46374993		0.00000000		0.00000000		-0.00059177
O		0.00000000		11.05617763		2.10946716		0.00000000		-0.00009908		 0.00004054
O		0.00000000		0.11732215		6.14353402		0.00000000		 0.00009908		-0.00004054
O		0.00000000		5.70407204		2.10946716		0.00000000		 0.00009908		 0.00004054
O		0.00000000		5.46942774		6.14353402		0.00000000		-0.00009908		-0.00004054
O		4.38177903		6.95997296		4.06790412		-0.00054634		-0.00004257		-0.00022806
O		1.31032081		4.21352682		4.18509592		 0.00054634		 0.00004257		 0.00022806
O		1.31032081		9.80027671		4.06790412		 0.00054634		 0.00004257		-0.00022806
O		4.38177903		1.37322307		4.18509592		-0.00054634		-0.00004257		 0.00022806
O		4.38177903		4.21352682		4.18509592		-0.00054634		 0.00004257		 0.00022806
O		1.31032081		6.95997296		4.06790412		 0.00054634		-0.00004257		-0.00022806
O		1.31032081		1.37322307		4.18509592		 0.00054634		-0.00004257		 0.00022806
O		4.38177903		9.80027671		4.06790412		-0.00054634		 0.00004257		-0.00022806
H		2.84604992		8.38012455		4.88165013		0.00000000		0.00000000		 0.00061416
H		2.84604992		2.79337466		3.37135105		0.00000000		0.00000000		-0.00061416
H		0.00000000		2.79337466		2.85471273		0.00000000		0.00000000		 0.00024330
H		0.00000000		8.38012455		5.39828674		0.00000000		0.00000000		-0.00024330
Mg		2.84604992		5.58674989		4.12649974		0.00000000		0.00000000		0.00000000
Mg		2.84604992		0.00000000		4.12649974		0.00000000		0.00000000		0.00000000
Mg		0.00000000		0.00000000		0.00000000		0.00000000		0.00000000		0.00000000
Mg		0.00000000		5.58674989		0.00000000		0.00000000		-0.00000000		0.00000000
Mg		1.42302496		1.41233007		2.06325015		-0.00023762		 0.00013078		 0.00008970
Mg		4.26907488		9.76116971		6.18974989		 0.00023762		-0.00013078		-0.00008970
Mg		4.26907488		4.17441982		2.06325015		 0.00023762		-0.00013078		 0.00008970
Mg		1.42302496		6.99907996		6.18974989		-0.00023762		 0.00013078		-0.00008970
Mg		1.42302496		9.76116971		6.18974989		-0.00023762		-0.00013078		-0.00008970
Mg		4.26907488		1.41233007		2.06325015		 0.00023762		 0.00013078		 0.00008970
Mg		4.26907488		6.99907996		6.18974989		 0.00023762		 0.00013078		-0.00008970
Mg		1.42302496		4.17441982		2.06325015		-0.00023762		-0.00013078		 0.00008970
Mg		0.00000000		2.79337466		8.00623499		0.00000000		0.00000000		 0.00042683
Mg		0.00000000		8.38012455		0.24676505		0.00000000		0.00000000		-0.00042683
Si		2.84604992		6.92868804		0.96230014		0.00000000		-0.00020923		 0.00002869
Si		2.84604992		4.24481174		7.29070104		0.00000000		 0.00020923		-0.00002869
Si		2.84604992		9.83156163		0.96230014		0.00000000		 0.00020923		 0.00002869
Si		2.84604992		1.34193815		7.29070104		0.00000000		-0.00020923		-0.00002869
Si		0.00000000		1.34193701		5.08879987		0.00000000		-0.00012954		-0.00048511
Si		0.00000000		9.83156163		3.16420017		0.00000000		 0.00012954		 0.00048511
Si		0.00000000		4.24481288		5.08879987		0.00000000		 0.00012954		-0.00048511
Si		0.00000000		6.92868804		3.16420017		0.00000000		-0.00012954		 0.00048511
