# total energy = -24711.9502417 eV

CRYSTAL
PRIMVEC
		9.53870002		0.00000000		0.00000000
		0.00000000		7.79409087		0.00000000
		-1.68714803		0.00000000		4.98419015
PRIMECORD
   40 1
Mg		-0.42178796		7.04741574		1.24604801		 0.00000006		 0.00015768		-0.00000009
Mg		-1.26536388		0.74667418		3.73814309		-0.00000006		-0.00015768		 0.00000009
Mg		4.34756205		3.15037126		1.24604801		-0.00000006		 0.00014360		-0.00000002
Mg		3.50398613		4.64371866		3.73814309		 0.00000006		-0.00014360		 0.00000002
Mg		-0.42178796		2.22599205		1.24604801		-0.00000007		-0.00031019		-0.00000023
Mg		-1.26536388		5.56809786		3.73814309		 0.00000007		 0.00031019		 0.00000023
Mg		4.34756205		6.12303749		1.24604801		-0.00000009		-0.00029884		-0.00000031
Mg		3.50398613		1.67105338		3.73814309		 0.00000009		 0.00029884		 0.00000031
Si		2.37296148		0.71690008		1.22461646		-0.00013598		-0.00012685		 0.00013082
Si		5.47858670		7.07718983		3.75957464		 0.00013598		 0.00012685		-0.00013082
Si		6.32216262		0.71690008		1.26747957		 0.00013198		-0.00012318		-0.00013401
Si		1.52938461		7.07718983		3.71671059		-0.00013198		 0.00012318		 0.00013401
Si		7.14231149		4.61394456		1.22461646		 0.00011222		 0.00000037		 0.00025752
Si		0.70923669		3.18014536		3.75957464		-0.00011222		-0.00000037		-0.00025752
Si		1.55281261		4.61394456		1.26747957		-0.00011451		 0.00000283		-0.00025952
Si		6.29873462		3.18014536		3.71671059		 0.00011451		-0.00000283		 0.00025952
O		0.84504584		0.64535124		0.68781754		 0.00032226		-0.00075709		-0.00006946
O		7.00650234		7.14873867		4.29637262		-0.00032226		 0.00075709		 0.00006946
O		7.85007827		0.64535124		1.80427659		-0.00031952		-0.00075715		 0.00007079
O		0.00146991		7.14873867		3.17991357		 0.00031952		 0.00075715		-0.00007079
O		5.61439585		4.54239572		0.68781754		 0.00015411		-0.00076414		-0.00013187
O		2.23715233		3.25169419		4.29637262		-0.00015411		 0.00076414		 0.00013187
O		3.08072825		4.54239572		1.80427659		-0.00015249		-0.00076433		 0.00013280
O		4.77081993		3.25169419		3.17991357		 0.00015249		 0.00076433		-0.00013280
O		2.93192644		2.00853736		1.58447441		 0.00002748		 0.00016465		 0.00018739
O		4.91962174		5.78555256		3.39971669		-0.00002748		-0.00016465		-0.00018739
O		5.76319766		2.00853736		0.90762066		-0.00002576		 0.00016072		-0.00018599
O		2.08834861		5.78555256		4.07657044		 0.00002576		-0.00016072		 0.00018599
O		7.70127645		5.90558183		1.58447441		-0.00006397		 0.00001909		 0.00013577
O		0.15027173		1.88850808		3.39971669		 0.00006397		-0.00001909		-0.00013577
O		0.99384765		5.90558183		0.90762066		 0.00006500		 0.00001670		-0.00013486
O		6.85769958		1.88850808		4.07657044		-0.00006500		-0.00001670		 0.00013486
O		3.33603347		0.05066194		0.12859217		 0.00089379		 0.00076064		-0.00005297
O		4.51551471		7.74342797		4.85559894		-0.00089379		-0.00076064		 0.00005297
O		5.35909063		0.05066194		2.36350386		-0.00089401		 0.00076056		 0.00005287
O		2.49245659		7.74342797		2.62068820		 0.00089401		-0.00076056		-0.00005287
O		8.10538348		3.94770738		0.12859217		 0.00086070		 0.00075300		-0.00007224
O		-0.25383530		3.84638254		4.85559894		-0.00086070		-0.00075300		 0.00007224
O		0.58974062		3.94770738		2.36350386		-0.00086088		 0.00075278		 0.00007234
O		7.26180660		3.84638254		2.62068820		 0.00086088		-0.00075278		-0.00007234
