# total energy = -24714.4330453 eV

CRYSTAL
PRIMVEC
		9.61326956		0.00000000		0.00000000
		0.00000000		8.82246278		0.00000000
		-1.62743040		0.00000000		5.40316699
PRIMECORD
   40 1
Mg		2.03778627		5.76459613		1.18167271		-0.00015383		-0.00017930		 0.00020002
Mg		5.94805577		3.05786473		4.22149333		 0.00015383		 0.00017930		-0.00020002
Mg		6.76177001		1.35336474		1.51991079		 0.00015383		-0.00017930		-0.00020002
Mg		1.22407203		7.46909419		3.88325620		-0.00015383		 0.00017930		 0.00020002
Mg		2.11556628		0.10675247		1.16600308		-0.00026090		-0.00011696		 0.00026330
Mg		5.87027576		8.71570838		4.23716296		 0.00026090		 0.00011696		-0.00026330
Mg		6.68399000		4.51798194		1.53557946		 0.00026090		-0.00011696		-0.00026330
Mg		1.30185204		4.30447795		3.86758658		-0.00026090		 0.00011696		 0.00026330
Si		-0.04067759		2.99610716		1.60960259		-0.00034619		-0.00054908		 0.00035641
Si		8.02651963		5.82635273		3.79356344		 0.00034619		 0.00054908		-0.00035641
Si		8.84023387		7.40733663		1.09197994		 0.00034619		-0.00054908		-0.00035641
Si		-0.85439087		1.41512327		4.31118705		-0.00034619		 0.00054908		 0.00035641
Si		4.94609063		7.39057493		1.22219552		 0.00001201		-0.00006006		 0.00040089
Si		3.03975044		1.43188496		4.18097051		-0.00001201		 0.00006006		-0.00040089
Si		3.85346468		2.97934450		1.47938701		-0.00001201		-0.00006006		-0.00040089
Si		4.13237736		5.84311443		3.92377998		 0.00001201		 0.00006006		 0.00040089
O		8.04909831		3.00757675		1.01525451		-0.00008347		 0.00073216		-0.00009829
O		-0.06325724		5.81488314		4.38791152		 0.00008347		-0.00073216		 0.00009829
O		0.75045700		7.41880622		1.68632802		 0.00008347		 0.00073216		 0.00009829
O		7.23538503		1.40365271		3.71683801		-0.00008347		-0.00073216		-0.00009829
O		0.68054066		4.41652253		1.73333595		-0.00031381		-0.00077288		 0.00002239
O		7.30530042		4.40593640		3.66983105		 0.00031381		 0.00077288		-0.00002239
O		8.11901466		0.00529307		0.96824659		 0.00031381		-0.00077288		-0.00002239
O		-0.13317262		8.81716683		4.43491848		-0.00031381		 0.00077288		 0.00002239
O		0.00731378		2.47911129		3.30781839		-0.00003965		-0.00006805		 0.00080082
O		7.97852730		6.34334860		2.09534765		 0.00003965		 0.00006805		-0.00080082
O		7.16481402		6.89034172		4.79693114		 0.00003965		-0.00006805		-0.00080082
O		0.82102802		1.93211914		0.60623489		-0.00003965		 0.00006805		 0.00080082
O		3.39361874		7.39233896		0.69214579		 0.00012655		-0.00046358		 0.00046333
O		4.59222234		1.43012093		4.71102120		-0.00012655		 0.00046358		-0.00046333
O		5.40593658		2.98110854		2.00943770		-0.00012655		-0.00046358		-0.00046333
O		2.57990450		5.84135040		3.39372929		 0.00012655		 0.00046358		 0.00046333
O		5.47592118		8.61424993		2.15370212		 0.00026782		 0.00037252		-0.00064389
O		2.50992086		0.20820996		3.24946488		-0.00026782		-0.00037252		 0.00064389
O		3.32363510		4.20301951		0.54788138		-0.00026782		 0.00037252		 0.00064389
O		4.66220790		4.61943943		4.85528561		 0.00026782		-0.00037252		-0.00064389
O		5.07876145		6.13160961		2.42224015		 0.00038217		 0.00002206		-0.00023552
O		2.90707963		2.69085028		2.98092685		-0.00038217		-0.00002206		 0.00023552
O		3.72079387		1.72038015		0.27934431		-0.00038217		 0.00002206		 0.00023552
O		4.26504817		7.10208071		5.12382269		 0.00038217		-0.00002206		-0.00023552
