# total energy = -24716.7913592 eV

CRYSTAL
PRIMVEC
		9.61326956		0.00000000		0.00000000
		0.00000000		8.82246278		0.00000000
		-1.62743040		0.00000000		5.03476728
PRIMECORD
   40 1
Mg		2.03778627		5.76459613		1.10110390		 0.00061324		 0.00017743		 0.00011398
Mg		5.94805577		3.05786473		3.93366434		-0.00061324		-0.00017743		-0.00011398
Mg		6.76177001		1.35336474		1.41628071		-0.00061324		 0.00017743		-0.00011398
Mg		1.22407203		7.46909419		3.61848753		 0.00061324		-0.00017743		 0.00011398
Mg		2.11556628		0.10675247		1.08650326		 0.00025415		 0.00032911		 0.00018900
Mg		5.87027576		8.71570838		3.94826594		-0.00025415		-0.00032911		-0.00018900
Mg		6.68399000		4.51798194		1.43088134		-0.00025415		 0.00032911		-0.00018900
Mg		1.30185204		4.30447795		3.60388786		 0.00025415		-0.00032911		 0.00018900
Si		-0.04067759		2.99610716		1.49985751		 0.00036645		 0.00023273		-0.00031808
Si		8.02651963		5.82635273		3.53491169		-0.00036645		-0.00023273		 0.00031808
Si		8.84023387		7.40733663		1.01752709		-0.00036645		 0.00023273		 0.00031808
Si		-0.85439087		1.41512327		4.01724211		 0.00036645		-0.00023273		-0.00031808
Si		4.94609063		7.39057493		1.13886482		 0.00014257		 0.00012350		 0.00000247
Si		3.03975044		1.43188496		3.89590342		-0.00014257		-0.00012350		-0.00000247
Si		3.85346468		2.97934450		1.37851978		-0.00014257		 0.00012350		-0.00000247
Si		4.13237736		5.84311443		3.65624846		 0.00014257		-0.00012350		 0.00000247
O		8.04909831		3.00757675		0.94603321		 0.00031333		-0.00021714		-0.00061838
O		-0.06325724		5.81488314		4.08873600		-0.00031333		 0.00021714		 0.00061838
O		0.75045700		7.41880622		1.57135140		-0.00031333		-0.00021714		 0.00061838
O		7.23538503		1.40365271		3.46341781		 0.00031333		 0.00021714		-0.00061838
O		0.68054066		4.41652253		1.61515426		 0.00015287		 0.00028210		-0.00007338
O		7.30530042		4.40593640		3.41961494		-0.00015287		-0.00028210		 0.00007338
O		8.11901466		0.00529307		0.90223130		-0.00015287		 0.00028210		 0.00007338
O		-0.13317262		8.81716683		4.13253790		 0.00015287		-0.00028210		-0.00007338
O		0.00731378		2.47911129		3.08228628		 0.00018847		 0.00015298		-0.00021095
O		7.97852730		6.34334860		1.95248293		-0.00018847		-0.00015298		 0.00021095
O		7.16481402		6.89034172		4.46986753		-0.00018847		 0.00015298		 0.00021095
O		0.82102802		1.93211914		0.56490071		 0.00018847		-0.00015298		-0.00021095
O		3.39361874		7.39233896		0.64495425		-0.00012254		-0.00039404		 0.00056299
O		4.59222234		1.43012093		4.38981495		 0.00012254		 0.00039404		-0.00056299
O		5.40593658		2.98110854		1.87243131		 0.00012254		-0.00039404		-0.00056299
O		2.57990450		5.84135040		3.16233789		-0.00012254		 0.00039404		 0.00056299
O		5.47592118		8.61424993		2.00685846		 0.00045522		-0.00006695		-0.00011324
O		2.50992086		0.20820996		3.02790978		-0.00045522		 0.00006695		 0.00011324
O		3.32363510		4.20301951		0.51052614		-0.00045522		-0.00006695		 0.00011324
O		4.66220790		4.61943943		4.52424306		 0.00045522		 0.00006695		-0.00011324
O		5.07876145		6.13160961		2.25708706		-0.00073626		 0.00041896		 0.00032198
O		2.90707963		2.69085028		2.77768214		 0.00073626		-0.00041896		-0.00032198
O		3.72079387		1.72038015		0.26029754		 0.00073626		 0.00041896		-0.00032198
O		4.26504817		7.10208071		4.77447166		-0.00073626		-0.00041896		 0.00032198
