# total energy = -24712.6432719 eV

CRYSTAL
PRIMVEC
		9.61326956		0.00000000		0.00000000
		0.00000000		8.82246278		0.00000000
		-1.62743040		0.00000000		4.42077737
PRIMECORD
   40 1
Mg		2.03778627		5.76459613		0.96682286		-0.00007091		 0.00035965		 0.00047371
Mg		5.94805577		3.05786473		3.45394970		 0.00007091		-0.00035965		-0.00047371
Mg		6.76177001		1.35336474		1.24356294		 0.00007091		 0.00035965		-0.00047371
Mg		1.22407203		7.46909419		3.17720866		-0.00007091		-0.00035965		 0.00047371
Mg		2.11556628		0.10675247		0.95400261		-0.00028837		 0.00037820		 0.00055752
Mg		5.87027576		8.71570838		3.46676995		 0.00028837		-0.00037820		-0.00055752
Mg		6.68399000		4.51798194		1.25638415		 0.00028837		 0.00037820		-0.00055752
Mg		1.30185204		4.30447795		3.16438840		-0.00028837		-0.00037820		 0.00055752
Si		-0.04067759		2.99610716		1.31694775		 0.00054569		 0.00000443		-0.00008376
Si		8.02651963		5.82635273		3.10382481		-0.00054569		-0.00000443		 0.00008376
Si		8.84023387		7.40733663		0.89343805		-0.00054569		 0.00000443		 0.00008376
Si		-0.85439087		1.41512327		3.52733355		 0.00054569		-0.00000443		-0.00008376
Si		4.94609063		7.39057493		0.99997903		-0.00000131		 0.00005211		-0.00005546
Si		3.03975044		1.43188496		3.42079353		 0.00000131		-0.00005211		 0.00005546
Si		3.85346468		2.97934450		1.21040773		 0.00000131		 0.00005211		 0.00005546
Si		4.13237736		5.84311443		3.21036483		-0.00000131		-0.00005211		-0.00005546
O		8.04909831		3.00757675		0.83066340		 0.00026865		 0.00074958		 0.00028570
O		-0.06325724		5.81488314		3.59011012		-0.00026865		-0.00074958		-0.00028570
O		0.75045700		7.41880622		1.37972336		-0.00026865		 0.00074958		-0.00028570
O		7.23538503		1.40365271		3.04105016		 0.00026865		-0.00074958		 0.00028570
O		0.68054066		4.41652253		1.41818413		 0.00071593		 0.00006117		 0.00016402
O		7.30530042		4.40593640		3.00258843		-0.00071593		-0.00006117		-0.00016402
O		8.11901466		0.00529307		0.79220167		-0.00071593		 0.00006117		-0.00016402
O		-0.13317262		8.81716683		3.62856993		 0.00071593		-0.00006117		 0.00016402
O		0.00731378		2.47911129		2.70639686		 0.00009494		 0.00020481		 0.00020383
O		7.97852730		6.34334860		1.71437570		-0.00009494		-0.00020481		-0.00020383
O		7.16481402		6.89034172		3.92476150		-0.00009494		 0.00020481		-0.00020383
O		0.82102802		1.93211914		0.49601106		 0.00009494		-0.00020481		 0.00020383
O		3.39361874		7.39233896		0.56630137		 0.00003832		 0.00024080		 0.00067973
O		4.59222234		1.43012093		3.85447215		-0.00003832		-0.00024080		-0.00067973
O		5.40593658		2.98110854		1.64408635		-0.00003832		 0.00024080		-0.00067973
O		2.57990450		5.84135040		2.77668717		 0.00003832		-0.00024080		 0.00067973
O		5.47592118		8.61424993		1.76212000		-0.00019788		-0.00000557		 0.00019503
O		2.50992086		0.20820996		2.65865256		 0.00019788		 0.00000557		-0.00019503
O		3.32363510		4.20301951		0.44826580		 0.00019788		-0.00000557		-0.00019503
O		4.66220790		4.61943943		3.97250580		-0.00019788		 0.00000557		 0.00019503
O		5.07876145		6.13160961		1.98183224		 0.00016479		 0.00025158		 0.00017512
O		2.90707963		2.69085028		2.43894032		-0.00016479		-0.00025158		-0.00017512
O		3.72079387		1.72038015		0.22855356		-0.00016479		 0.00025158		-0.00017512
O		4.26504817		7.10208071		4.19221900		 0.00016479		-0.00025158		 0.00017512
