# total energy = -24716.5269483 eV

CRYSTAL
PRIMVEC
		9.61326956		0.00000000		0.00000000
		0.00000000		8.82246278		0.00000000
		-1.62743040		0.00000000		4.78916747
PRIMECORD
   40 1
Mg		2.03778627		5.76459613		1.04739167		-0.00044768		 0.00016095		 0.00000843
Mg		5.94805577		3.05786473		3.74177868		 0.00044768		-0.00016095		-0.00000843
Mg		6.76177001		1.35336474		1.34719398		 0.00044768		 0.00016095		-0.00000843
Mg		1.22407203		7.46909419		3.44197637		-0.00044768		-0.00016095		 0.00000843
Mg		2.11556628		0.10675247		1.03350338		-0.00040123		-0.00003102		-0.00063084
Mg		5.87027576		8.71570838		3.75566793		 0.00040123		 0.00003102		 0.00063084
Mg		6.68399000		4.51798194		1.36108227		 0.00040123		-0.00003102		 0.00063084
Mg		1.30185204		4.30447795		3.42808808		-0.00040123		 0.00003102		-0.00063084
Si		-0.04067759		2.99610716		1.42669380		-0.00014627		-0.00019976		 0.00062908
Si		8.02651963		5.82635273		3.36247655		 0.00014627		 0.00019976		-0.00062908
Si		8.84023387		7.40733663		0.96789090		 0.00014627		-0.00019976		-0.00062908
Si		-0.85439087		1.41512327		3.82127849		-0.00014627		 0.00019976		 0.00062908
Si		4.94609063		7.39057493		1.08330973		-0.00051316		 0.00011447		-0.00000625
Si		3.03975044		1.43188496		3.70585966		 0.00051316		-0.00011447		 0.00000625
Si		3.85346468		2.97934450		1.31127496		 0.00051316		 0.00011447		 0.00000625
Si		4.13237736		5.84311443		3.47789539		-0.00051316		-0.00011447		-0.00000625
O		8.04909831		3.00757675		0.89988470		 0.00016855		-0.00032962		 0.00000183
O		-0.06325724		5.81488314		3.88928469		-0.00016855		 0.00032962		-0.00000183
O		0.75045700		7.41880622		1.49469999		-0.00016855		-0.00032962		-0.00000183
O		7.23538503		1.40365271		3.29446940		 0.00016855		 0.00032962		 0.00000183
O		0.68054066		4.41652253		1.53636582		 0.00030780		-0.00008769		 0.00042355
O		7.30530042		4.40593640		3.25280453		-0.00030780		 0.00008769		-0.00042355
O		8.11901466		0.00529307		0.85821887		-0.00030780		-0.00008769		-0.00042355
O		-0.13317262		8.81716683		3.93095052		 0.00030780		 0.00008769		 0.00042355
O		0.00731378		2.47911129		2.93192993		-0.00015584		-0.00001440		-0.00016980
O		7.97852730		6.34334860		1.85723946		 0.00015584		 0.00001440		 0.00016980
O		7.16481402		6.89034172		4.25182608		 0.00015584		-0.00001440		 0.00016980
O		0.82102802		1.93211914		0.53734524		-0.00015584		 0.00001440		-0.00016980
O		3.39361874		7.39233896		0.61349291		-0.00090637		-0.00022934		-0.00014310
O		4.59222234		1.43012093		4.17567744		 0.00090637		 0.00022934		 0.00014310
O		5.40593658		2.98110854		1.78109275		 0.00090637		-0.00022934		 0.00014310
O		2.57990450		5.84135040		3.00807760		-0.00090637		 0.00022934		-0.00014310
O		5.47592118		8.61424993		1.90896269		-0.00063732		 0.00001127		-0.00025737
O		2.50992086		0.20820996		2.88020670		 0.00063732		-0.00001127		 0.00025737
O		3.32363510		4.20301951		0.48562200		 0.00063732		 0.00001127		 0.00025737
O		4.66220790		4.61943943		4.30354835		-0.00063732		-0.00001127		-0.00025737
O		5.07876145		6.13160961		2.14698532		 0.00066506		-0.00048922		-0.00022210
O		2.90707963		2.69085028		2.64218503		-0.00066506		 0.00048922		 0.00022210
O		3.72079387		1.72038015		0.24760033		-0.00066506		-0.00048922		 0.00022210
O		4.26504817		7.10208071		4.54157002		 0.00066506		 0.00048922		-0.00022210
