# total energy = -41266.8574478 eV	

CRYSTAL	
PRIMVEC	
		5.69780089		0.68373473		0.00000000	
		1.37544048		11.46199828		0.00000000	
		0.00000000		0.00000000		8.25710185	
PRIMCOORD
   56 1	
Mg		0.00000000		0.00000000		0.00000000		0.00000000		0.00000000		0.00000000	
Mg		0.68772024		5.73099971		0.00000000		0.00000000		0.00000000		0.00000000	
Mg		3.53662011		6.07286823		4.12854978		0.00000000		0.00000000		0.00000000	
Mg		2.84889987		0.34186794		4.12854978		0.00000000		0.00000000		0.00000000	
Mg		0.34385983		2.86550014		8.00773622		0.00000000		 0.00000002		-0.00016856	
Mg		1.03158007		8.59649986		0.24936390		-0.00000000		-0.00000002		 0.00016856	
Mg		3.88047995		8.93836780		3.87918588		0.00000000		 0.00000003		-0.00016842	
Mg		3.19275971		3.20736808		4.37791482		-0.00000000		-0.00000003		 0.00016842	
Mg		1.59899296		1.62546204		2.06427517		-0.00016801		 0.00037483		 0.00067837	
Mg		5.47424669		10.52027385		6.19282495		 0.00016801		-0.00037483		-0.00067837	
Mg		4.78652703		4.78927413		2.06427517		 0.00016800		-0.00037481		 0.00067835	
Mg		2.28671320		7.35646175		6.19282495		-0.00016800		 0.00037481		-0.00067835	
Mg		5.13561307		7.69832969		6.19282495		-0.00016811		 0.00037475		 0.00067785	
Mg		1.93762715		4.44740619		2.06427517		 0.00016811		-0.00037475		-0.00067785	
Mg		2.62534682		10.17840591		6.19282495		 0.00016810		-0.00037474		 0.00067784	
Mg		4.44789283		1.96732997		2.06427517		-0.00016810		 0.00037474		-0.00067784	
Si		0.16491524		1.37429389		5.09050190		 0.00011379		 0.00002216		-0.00004908	
Si		1.21052524		10.08770611		3.16659822		-0.00011379		-0.00002216		 0.00004908	
Si		0.52280500		4.35670582		5.09050190		-0.00011367		-0.00002199		-0.00004878	
Si		0.85263491		7.10529418		3.16659822		 0.00011367		 0.00002199		 0.00004878	
Si		3.70153478		7.44716212		0.96195213		 0.00011284		 0.00002019		-0.00004551	
Si		3.37170487		4.69857376		7.29514800		-0.00011284		-0.00002019		 0.00004551	
Si		4.05942511		10.42957405		0.96195213		-0.00011271		-0.00002003		-0.00004523	
Si		3.01381512		1.71616183		7.29514800		 0.00011271		 0.00002003		 0.00004523	
O		0.34385983		2.86550014		1.80169912		-0.00000001		-0.00000001		 0.00090694	
O		1.03158007		8.59649986		6.45540101		 0.00000001		 0.00000001		-0.00090694	
O		3.88047995		8.93836780		5.93024889		-0.00000002		-0.00000001		 0.00090745	
O		3.19275971		3.20736808		2.32685123		 0.00000002		 0.00000001		-0.00090745	
O		0.34385983		2.86550014		5.90960572		-0.00000001		-0.00000000		 0.00049731	
O		1.03158007		8.59649986		2.34749383		 0.00000001		0.00000000		-0.00049731	
O		3.88047995		8.93836780		1.78105595		-0.00000000		-0.00000000		 0.00049663	
O		3.19275971		3.20736808		6.47604418		0.00000000		0.00000000		-0.00049663	
O		1.36140999		11.34508707		2.11794616		-0.00026491		 0.00009194		 0.00009533	
O		0.01402992		0.11691293		6.13915397		 0.00026491		-0.00009194		-0.00009533	
O		0.70175016		5.84791322		2.11794616		 0.00026492		-0.00009177		 0.00009552	
O		0.67368975		5.61408679		6.13915397		-0.00026492		 0.00009177		-0.00009552	
O		3.52259077		5.95595472		6.24649593		-0.00026501		 0.00009013		 0.00009760	
O		3.55065003		6.18978116		2.01060419		 0.00026501		-0.00009013		-0.00009760	
O		2.86292979		0.45878087		6.24649593		 0.00026502		-0.00008997		 0.00009780	
O		4.21031101		11.68695501		2.01060419		-0.00026502		 0.00008997		-0.00009780	
O		1.65062671		1.58308075		8.20012596		-0.00020651		-0.00020039		 0.00001935	
O		5.42261294		10.56265513		0.05697416		 0.00020651		 0.00020039		-0.00001935	
O		4.73489270		4.83165484		8.20012596		 0.00020649		 0.00020037		 0.00001934	
O		2.33834695		7.31408104		0.05697416		-0.00020649		-0.00020037		-0.00001934	
O		5.07215076		7.64213771		0.05697416		 0.00029085		 0.00046751		-0.00028325	
O		2.00108889		4.50359875		8.20012596		-0.00029085		-0.00046751		 0.00028325	
O		2.68880913		10.23459789		0.05697416		-0.00029098		-0.00046751		-0.00028335	
O		4.38443109		1.91113684		8.20012596		 0.00029098		 0.00046751		 0.00028335	
O		5.18724682		7.65594898		4.07157619		-0.00020604		-0.00020038		 0.00001908	
O		1.88599283		4.48978690		4.18552394		 0.00020604		 0.00020038		-0.00001908	
O		2.57371307		10.22078719		4.07157619		 0.00020602		 0.00020036		 0.00001906	
O		4.49952716		1.92494927		4.18552394		-0.00020602		-0.00020036		-0.00001906	
O		1.53553122		1.56926891		4.18552394		 0.00028962		 0.00046742		-0.00028229	
O		5.53770901		10.57646583		4.07157619		-0.00028962		-0.00046742		 0.00028229	
O		4.84998876		4.84546669		4.18552394		-0.00028976		-0.00046742		-0.00028238	
O		2.22325089		7.30026977		4.07157619		 0.00028976		 0.00046742		 0.00028238	
