# total energy = -41274.409923 eV	

CRYSTAL	
PRIMVEC	
		5.69780017		0.22791178		0.00000000	
		0.45848086		11.46199858		0.00000000	
		0.00000000		0.00000000		8.25709754	
PRIMCOORD
   56 1	
Mg		0.00000000		0.00000000		0.00000000		0.00000000		0.00000000		0.00000000	
Mg		0.22923986		5.73099986		0.00000000		0.00000000		0.00000000		0.00000000	
Mg		3.07813994		5.84495575		4.12854991		0.00000000		0.00000000		0.00000000	
Mg		2.84890009		0.11395589		4.12854991		0.00000000		0.00000000		0.00000000	
Mg		0.11462021		2.86550022		8.00773578		-0.00000001		 0.00000001		-0.00010898	
Mg		0.34386007		8.59650008		0.24936404		 0.00000001		-0.00000001		 0.00010898	
Mg		3.19276016		8.71045597		3.87918587		0.00000000		-0.00000001		-0.00010897	
Mg		2.96351973		2.97945611		4.37791509		-0.00000000		 0.00000001		 0.00010897	
Mg		1.48263090		1.51150592		2.06427524		 0.00025174		 0.00002406		-0.00050424	
Mg		4.67364899		10.17840615		6.19282515		-0.00025174		-0.00002406		 0.00050424	
Mg		4.44440913		4.44740572		2.06427524		-0.00025174		-0.00002405		-0.00050425	
Mg		1.71187076		7.24250578		6.19282515		 0.00025174		 0.00002405		 0.00050425	
Mg		4.56077084		7.35646167		6.19282515		 0.00025171		 0.00002405		-0.00050425	
Mg		1.59550904		4.33344983		2.06427524		-0.00025171		-0.00002405		 0.00050425	
Mg		1.82474890		10.06444969		6.19282515		-0.00025172		-0.00002407		-0.00050425	
Mg		4.33153099		1.62546181		2.06427524		 0.00025172		 0.00002407		 0.00050425	
Si		0.05497186		1.37429411		5.09050207		 0.00047020		-0.00025356		-0.00076465	
Si		0.40350786		10.08770561		3.16659775		-0.00047020		 0.00025356		 0.00076465	
Si		0.17426800		4.35670575		5.09050207		-0.00047021		 0.00025355		-0.00076467	
Si		0.28421171		7.10529397		3.16659775		 0.00047021		-0.00025355		 0.00076467	
Si		3.13311180		7.21924986		0.96195216		 0.00047018		-0.00025359		-0.00076459	
Si		3.02316809		4.47066221		7.29514766		-0.00047018		 0.00025359		 0.00076459	
Si		3.25240795		10.20166207		0.96195216		-0.00047020		 0.00025359		-0.00076463	
Si		2.90387194		1.48825000		7.29514766		 0.00047020		-0.00025359		 0.00076463	
O		0.11462021		2.86550022		1.80169884		-0.00000000		 0.00000001		 0.00012000	
O		0.34386007		8.59650008		6.45540098		0.00000000		-0.00000001		-0.00012000	
O		3.19276016		8.71045597		5.93024875		 0.00000001		-0.00000000		 0.00012001	
O		2.96351973		2.97945611		2.32685107		-0.00000001		0.00000000		-0.00012001	
O		0.11462021		2.86550022		5.90960622		-0.00000001		-0.00000001		 0.00059393	
O		0.34386007		8.59650008		2.34749417		 0.00000001		 0.00000001		-0.00059393	
O		3.19276016		8.71045597		1.78105574		-0.00000001		-0.00000003		 0.00059392	
O		2.96351973		2.97945611		6.47604408		 0.00000001		 0.00000003		-0.00059392	
O		0.45380321		11.34508659		2.11794582		 0.00001739		 0.00035578		-0.00030271	
O		0.00467707		0.11691313		6.13915400		-0.00001739		-0.00035578		 0.00030271	
O		0.23391693		5.84791299		2.11794582		-0.00001737		-0.00035584		-0.00030274	
O		0.22456278		5.61408673		6.13915400		 0.00001737		 0.00035584		 0.00030274	
O		3.07346401		5.72804319		6.24649573		 0.00001738		 0.00035578		-0.00030270	
O		3.08281702		5.96186888		2.01060409		-0.00001738		-0.00035578		 0.00030270	
O		2.85357716		0.23086902		6.24649573		-0.00001737		-0.00035581		-0.00030271	
O		3.30270387		11.45904305		2.01060409		 0.00001737		 0.00035581		 0.00030271	
O		1.53820778		1.46452079		8.20012587		-0.00004031		 0.00029397		 0.00000238	
O		4.61807268		10.22539072		0.05697395		 0.00004031		-0.00029397		-0.00000238	
O		4.38883283		4.49439085		8.20012587		 0.00004030		-0.00029398		 0.00000238	
O		1.76744820		7.19552065		0.05697395		-0.00004030		 0.00029398		-0.00000238	
O		4.50125193		7.30487303		0.05697395		 0.00056407		-0.00021138		-0.00044004	
O		1.65502796		4.38503905		8.20012587		-0.00056407		 0.00021138		 0.00044004	
O		1.88426782		10.11603777		0.05697395		-0.00056405		 0.00021140		-0.00044004	
O		4.27201207		1.57387316		8.20012587		 0.00056405		-0.00021140		 0.00044004	
O		4.61634772		7.30947711		4.07157596		-0.00004029		 0.00029398		 0.00000236	
O		1.53993274		4.38043497		4.18552386		 0.00004029		-0.00029398		-0.00000236	
O		1.76917317		10.11143483		4.07157596		 0.00004028		-0.00029396		 0.00000235	
O		4.38710786		1.57847725		4.18552386		-0.00004028		 0.00029396		-0.00000235	
O		1.42311199		1.45991670		4.18552386		 0.00056405		-0.00021140		-0.00044005	
O		4.73316790		10.22999366		4.07157596		-0.00056405		 0.00021140		 0.00044005	
O		4.50392805		4.49899494		4.18552386		-0.00056402		 0.00021138		-0.00044003	
O		1.65235184		7.19091714		4.07157596		 0.00056402		-0.00021138		 0.00044003	
