# total energy = -9073.01771777 eV	

CRYSTAL	
PRIMVEC	
		5.11310166		-0.81809854		0.00000000	
		-0.83036554		5.18980018		0.00000000	
		-0.00383700		0.00061620		7.33030090	
PRIMCOORD
   28 1	
Mg		3.45306962		2.04677598		1.83990487		 0.00031540		-0.00029672		-0.00046194	
Mg		1.21775675		-0.12404375		5.49039395		-0.00027405		-0.00014199		 0.00014275	
Si		1.26652079		-0.13690313		1.83257471		 0.00002836		-0.00028021		-0.00003599	
Si		3.40596776		2.04925579		5.49772360		 0.00003392		 0.00004709		-0.00006857	
O		1.04293570		4.77376198		3.53320383		-0.00029857		-0.00012931		-0.00037516	
O		2.85897093		1.95472481		3.79709500		-0.00013494		 0.00013203		 0.00026058	
O		3.95214904		2.14897370		7.16903154		-0.00082941		-0.00071231		 0.00015133	
O		0.65889216		0.14742406		0.16126676		 0.00052981		-0.00008909		-0.00038720	
O		3.96813704		3.42582176		5.07989688		 0.00005618		-0.00004900		-0.00035000	
O		0.22273898		1.49661479		2.25040195		 0.00017582		-0.00000227		 0.00034459	
O		1.74894370		3.06280662		5.87889950		 0.00001658		 0.00002373		 0.00061701	
O		2.67775593		0.38572696		1.45139881		-0.00019422		-0.00064889		 0.00009684	
O		4.14931166		3.57888274		2.34569567		-0.00013506		-0.00021716		 0.00008369	
O		-0.01822289		1.71721883		4.98460264		-0.00002153		-0.00008349		 0.00026188	
O		1.41312205		3.33904401		1.31945375		 0.00019630		 0.00029678		 0.00007206	
O		2.94050479		0.56619217		6.01084456		-0.00005052		-0.00019664		-0.00024139	
H		1.66802397		3.79384002		3.58451603		-0.00092271		-0.00010140		 0.00044380	
H		2.52285102		1.12859705		3.74578280		-0.00022182		 0.00000745		-0.00027958	
H		4.33970802		2.84044771		7.22034374		 0.00026422		 0.00076374		-0.00028951	
H		0.02388414		1.00251001		0.10995405		 0.00006918		 0.00042167		-0.00014700	
H		1.10825683		2.58376865		5.67365070		 0.00019946		-0.00022110		 0.00028744	
H		3.50942688		-0.32888917		1.65664813		 0.00025340		 0.00028072		-0.00000683	
H		3.17016694		4.30192369		5.35844889		 0.00040342		 0.00028563		 0.00015789	
H		0.77491912		2.15669275		1.97184994		-0.00007344		 0.00005037		-0.00026135	
H		4.07156664		3.65706272		3.26198302		 0.00054536		 0.00021029		 0.00036655	
H		0.03793190		1.77397377		4.06831581		 0.00004121		-0.00014844		-0.00030891	
H		1.53094893		3.25950787		0.38850606		 0.00005211		 0.00049600		 0.00007326	
H		2.84260700		0.52117296		6.94179277		-0.00002447		 0.00030251		-0.00014622	
