# total energy = -22467.4839281 eV

CRYSTAL
PRIMVEC
		9.73970004		0.00000000		0.00000000
		0.00000000		8.91739665		0.00000000
		-1.43536881		0.00000000		5.55531063
PRIMECORD
   40 1
Mg		-0.35884269		8.09771323		1.38882766		-0.00000015		 0.00007807		 0.00000017
Mg		-1.07652807		0.81968829		4.16648395		 0.00000015		-0.00007807		-0.00000017
Mg		4.51100733		3.63901296		1.38882766		-0.00000006		 0.00006696		 0.00000017
Mg		3.79332195		5.27838758		4.16648395		 0.00000006		-0.00006696		-0.00000017
Ca		-0.35884269		2.68841824		1.38882766		 0.00000022		 0.00005524		 0.00000035
Ca		-1.07652807		6.22898328		4.16648395		-0.00000022		-0.00005524		-0.00000035
Ca		4.51100733		7.14711851		1.38882766		 0.00000023		 0.00007215		 0.00000038
Ca		3.79332195		1.77028204		4.16648395		-0.00000023		-0.00007215		-0.00000038
Si		2.45818828		0.83101264		1.27416607		-0.00038887		-0.00060657		-0.00027472
Si		5.84614100		8.08638791		4.28114457		 0.00038887		 0.00060657		 0.00027472
Si		6.56382638		0.83101264		1.50349022		 0.00039421		-0.00061158		 0.00027815
Si		1.74050290		8.08638791		4.05182236		-0.00039421		 0.00061158		-0.00027815
Si		7.32803928		5.28971291		1.27416607		-0.00025328		-0.00051230		-0.00021630
Si		0.97629098		3.62768764		4.28114457		 0.00025328		 0.00051230		 0.00021630
Si		1.69397636		5.28971291		1.50349022		 0.00025865		-0.00051733		 0.00021971
Si		6.61035293		3.62768764		4.05182236		-0.00025865		 0.00051733		-0.00021971
O		0.92170288		0.77492170		0.78807614		 0.00024223		 0.00021599		 0.00016301
O		7.38262640		8.14247787		4.76723546		-0.00024223		-0.00021599		-0.00016301
O		8.10031081		0.77492170		1.98957917		-0.00024558		 0.00021652		-0.00016424
O		0.20401847		8.14247787		3.56573243		 0.00024558		-0.00021652		 0.00016424
O		5.79155387		5.23362198		0.78807614		 0.00016342		 0.00020365		 0.00013759
O		2.51277638		3.68377760		4.76723546		-0.00016342		-0.00020365		-0.00013759
O		3.23046079		5.23362198		1.98957917		-0.00016688		 0.00020414		-0.00013890
O		5.07386849		3.68377760		3.56573243		 0.00016688		-0.00020414		 0.00013890
O		3.05934400		2.23104387		1.76525635		-0.00048005		-0.00077205		-0.00024204
O		5.24498528		6.68635570		3.79005623		 0.00048005		 0.00077205		 0.00024204
O		5.96267066		2.23104387		1.01239994		 0.00047811		-0.00076765		 0.00024055
O		2.34165764		6.68635570		4.54291069		-0.00047811		 0.00076765		-0.00024055
O		7.92919402		6.68974512		1.76525635		-0.00053269		-0.00085963		-0.00026413
O		0.37513526		2.22765640		3.79005623		 0.00053269		 0.00085963		 0.00026413
O		1.09282064		6.68974512		1.01239994		 0.00053073		-0.00085516		 0.00026279
O		7.21150767		2.22765640		4.54291069		-0.00053073		 0.00085516		-0.00026279
O		1.98719392		0.15551866		5.52992410		-0.00009396		-0.00038519		 0.00011581
O		6.31713633		8.76188091		0.02538848		 0.00009396		 0.00038519		-0.00011581
O		5.59944998		0.15551866		2.80304282		 0.00009414		-0.00038481		-0.00011582
O		2.70487930		8.76188091		2.75226781		-0.00009414		 0.00038481		 0.00011582
O		6.85704394		4.61421991		5.52992410		-0.00011022		-0.00038786		 0.00010531
O		1.44728534		4.30318064		0.02538848		 0.00011022		 0.00038786		-0.00010531
O		0.72959996		4.61421991		2.80304282		 0.00011045		-0.00038750		-0.00010544
O		7.57472933		4.30318064		2.75226781		-0.00011045		 0.00038750		 0.00010544
