# total energy = -22468.6349241 eV

CRYSTAL
PRIMVEC
		9.73970004		0.00000000		0.00000000
		0.00000000		8.91739665		0.00000000
		-1.43536881		0.00000000		5.42905490
PRIMECORD
   40 1
Mg		-0.35884269		8.09771323		1.35726421		-0.00000009		-0.00011786		 0.00000016
Mg		-1.07652807		0.81968829		4.07179069		 0.00000009		 0.00011786		-0.00000016
Mg		4.51100733		3.63901296		1.35726421		-0.00000005		-0.00011789		 0.00000011
Mg		3.79332195		5.27838758		4.07179069		 0.00000005		 0.00011789		-0.00000011
Ca		-0.35884269		2.68841824		1.35726421		 0.00000009		 0.00066492		 0.00000021
Ca		-1.07652807		6.22898328		4.07179069		-0.00000009		-0.00066492		-0.00000021
Ca		4.51100733		7.14711851		1.35726421		-0.00000001		 0.00066671		 0.00000016
Ca		3.79332195		1.77028204		4.07179069		 0.00000001		-0.00066671		-0.00000016
Si		2.45818828		0.83101264		1.24520799		-0.00038328		-0.00049266		-0.00006420
Si		5.84614100		8.08638791		4.18384594		 0.00038328		 0.00049266		 0.00006420
Si		6.56382638		0.83101264		1.46931946		 0.00038517		-0.00049457		 0.00006537
Si		1.74050290		8.08638791		3.95973544		-0.00038517		 0.00049457		-0.00006537
Si		7.32803928		5.28971291		1.24520799		-0.00034056		-0.00046564		-0.00004600
Si		0.97629098		3.62768764		4.18384594		 0.00034056		 0.00046564		 0.00004600
Si		1.69397636		5.28971291		1.46931946		 0.00034254		-0.00046736		 0.00004715
Si		6.61035293		3.62768764		3.95973544		-0.00034254		 0.00046736		-0.00004715
O		0.92170288		0.77492170		0.77016581		 0.00041410		-0.00034033		-0.00005782
O		7.38262640		8.14247787		4.65888909		-0.00041410		 0.00034033		 0.00005782
O		8.10031081		0.77492170		1.94436067		-0.00041540		-0.00034006		 0.00005730
O		0.20401847		8.14247787		3.48469326		 0.00041540		 0.00034006		-0.00005730
O		5.79155387		5.23362198		0.77016581		 0.00037988		-0.00034118		-0.00006877
O		2.51277638		3.68377760		4.65888909		-0.00037988		 0.00034118		 0.00006877
O		3.23046079		5.23362198		1.94436067		-0.00038087		-0.00034089		 0.00006832
O		5.07386849		3.68377760		3.48469326		 0.00038087		 0.00034089		-0.00006832
O		3.05934400		2.23104387		1.72513560		-0.00004014		-0.00070197		-0.00034831
O		5.24498528		6.68635570		3.70391832		 0.00004014		 0.00070197		 0.00034831
O		5.96267066		2.23104387		0.98939087		 0.00003940		-0.00070022		 0.00034793
O		2.34165764		6.68635570		4.43966305		-0.00003940		 0.00070022		-0.00034793
O		7.92919402		6.68974512		1.72513560		-0.00006332		-0.00073850		-0.00035978
O		0.37513526		2.22765640		3.70391832		 0.00006332		 0.00073850		 0.00035978
O		1.09282064		6.68974512		0.98939087		 0.00006259		-0.00073700		 0.00035929
O		7.21150767		2.22765640		4.43966305		-0.00006259		 0.00073700		-0.00035929
O		1.98719392		0.15551866		5.40424301		-0.00024361		-0.00046330		 0.00010675
O		6.31713633		8.76188091		0.02481091		 0.00024361		 0.00046330		-0.00010675
O		5.59944998		0.15551866		2.73933836		 0.00024383		-0.00046320		-0.00010663
O		2.70487930		8.76188091		2.68971556		-0.00024383		 0.00046320		 0.00010663
O		6.85704394		4.61421991		5.40424301		-0.00025364		-0.00046397		 0.00010415
O		1.44728534		4.30318064		0.02481091		 0.00025364		 0.00046397		-0.00010415
O		0.72959996		4.61421991		2.73933836		 0.00025370		-0.00046380		-0.00010431
O		7.57472933		4.30318064		2.68971556		-0.00025370		 0.00046380		 0.00010431
