# total energy = -22469.5751572 eV

CRYSTAL
PRIMVEC
		9.73970004		0.00000000		0.00000000
		0.00000000		8.91739665		0.00000000
		-1.43536881		0.00000000		4.92402223
PRIMECORD
   40 1
Mg		-0.35884269		8.09771323		1.23100556		-0.00000000		 0.00059720		 0.00000003
Mg		-1.07652807		0.81968829		3.69301862		0.00000000		-0.00059720		-0.00000003
Mg		4.51100733		3.63901296		1.23100556		 0.00000001		 0.00059547		-0.00000001
Mg		3.79332195		5.27838758		3.69301862		-0.00000001		-0.00059547		 0.00000001
Ca		-0.35884269		2.68841824		1.23100556		-0.00000002		 0.00008379		 0.00000002
Ca		-1.07652807		6.22898328		3.69301862		 0.00000002		-0.00008379		-0.00000002
Ca		4.51100733		7.14711851		1.23100556		 0.00000001		 0.00008682		 0.00000002
Ca		3.79332195		1.77028204		3.69301862		-0.00000001		-0.00008682		-0.00000002
Si		2.45818828		0.83101264		1.12937471		-0.00008052		-0.00002534		-0.00019720
Si		5.84614100		8.08638791		3.79465142		 0.00008052		 0.00002534		 0.00019720
Si		6.56382638		0.83101264		1.33263835		 0.00008094		-0.00002522		 0.00019727
Si		1.74050290		8.08638791		3.59138778		-0.00008094		 0.00002522		-0.00019727
Si		7.32803928		5.28971291		1.12937471		-0.00004456		-0.00000498		-0.00018329
Si		0.97629098		3.62768764		3.79465142		 0.00004456		 0.00000498		 0.00018329
Si		1.69397636		5.28971291		1.33263835		 0.00004471		-0.00000471		 0.00018326
Si		6.61035293		3.62768764		3.59138778		-0.00004471		 0.00000471		-0.00018326
O		0.92170288		0.77492170		0.69852155		 0.00011866		-0.00013794		-0.00090679
O		7.38262640		8.14247787		4.22550361		-0.00011866		 0.00013794		 0.00090679
O		8.10031081		0.77492170		1.76349054		-0.00011898		-0.00013790		 0.00090667
O		0.20401847		8.14247787		3.16053461		 0.00011898		 0.00013790		-0.00090667
O		5.79155387		5.23362198		0.69852155		 0.00009466		-0.00014117		-0.00091362
O		2.51277638		3.68377760		4.22550361		-0.00009466		 0.00014117		 0.00091362
O		3.23046079		5.23362198		1.76349054		-0.00009480		-0.00014116		 0.00091361
O		5.07386849		3.68377760		3.16053461		 0.00009480		 0.00014116		-0.00091361
O		3.05934400		2.23104387		1.56465846		 0.00033628		-0.00026138		 0.00060309
O		5.24498528		6.68635570		3.35936767		-0.00033628		 0.00026138		-0.00060309
O		5.96267066		2.23104387		0.89735460		-0.00033632		-0.00026136		-0.00060318
O		2.34165764		6.68635570		4.02667055		 0.00033632		 0.00026136		 0.00060318
O		7.92919402		6.68974512		1.56465846		 0.00032311		-0.00028233		 0.00059717
O		0.37513526		2.22765640		3.35936767		-0.00032311		 0.00028233		-0.00059717
O		1.09282064		6.68974512		0.89735460		-0.00032314		-0.00028250		-0.00059715
O		7.21150767		2.22765640		4.02667055		 0.00032314		 0.00028250		 0.00059715
O		1.98719392		0.15551866		4.90152255		 0.00017066		 0.00091925		-0.00074397
O		6.31713633		8.76188091		0.02250260		-0.00017066		-0.00091925		 0.00074397
O		5.59944998		0.15551866		2.48451567		-0.00017075		 0.00091905		 0.00074427
O		2.70487930		8.76188091		2.43951046		 0.00017075		-0.00091905		-0.00074427
O		6.85704394		4.61421991		4.90152255		 0.00016485		 0.00091861		-0.00074550
O		1.44728534		4.30318064		0.02250260		-0.00016485		-0.00091861		 0.00074550
O		0.72959996		4.61421991		2.48451567		-0.00016494		 0.00091846		 0.00074583
O		7.57472933		4.30318064		2.43951046		 0.00016494		-0.00091846		-0.00074583
