# total energy = -18366.8212428 eV

CRYSTAL
PRIMVEC
		4.81500060		0.57779891		0.00000000
		1.32959945		11.08000029		0.00000000
		0.00000000		0.00000000		6.37000201
PRIMECORD
   28 1
Mg		0.00000000		0.00000000		0.00000000		0.00000000		0.00000000		0.00000000
Mg		3.07230003		5.82889960		0.00000000		0.00000000		0.00000000		0.00000000
Mg		0.00000000		0.00000000		3.18500003		0.00000000		0.00000000		0.00000000
Mg		3.07230003		5.82889960		3.18500003		0.00000000		0.00000000		0.00000000
Ca		5.07485178		3.41553668		1.59250002		 0.00031050		-0.00087655		-0.00000000
Ca		1.06974780		8.24226251		4.77750005		-0.00031050		 0.00087655		0.00000000
Ca		2.64873795		2.97151681		4.77750005		 0.00060602		-0.00050187		0.00000000
Ca		3.49586210		8.68628190		1.59250002		-0.00060602		 0.00050187		-0.00000000
Si		2.05479103		1.18573288		1.59250002		-0.00005242		-0.00009308		0.00000000
Si		4.08980902		10.47206583		4.77750005		 0.00005242		 0.00009308		0.00000000
Si		4.89839870		5.10887278		4.77750005		-0.00011651		-0.00037209		0.00000000
Si		1.24620088		6.54892690		1.59250002		 0.00011651		 0.00037209		-0.00000000
O		3.76774305		1.18379889		1.59250002		-0.00051699		 0.00014956		0.00000000
O		2.37685700		10.47399983		4.77750005		 0.00051699		-0.00014956		0.00000000
O		1.84687702		4.95017873		4.77750005		 0.00008701		-0.00038448		0.00000000
O		4.29772303		6.70762095		1.59250002		-0.00008701		 0.00038448		-0.00000000
O		4.16077385		5.56638069		1.59250002		 0.00050915		-0.00010959		-0.00000000
O		1.98382572		6.09141899		4.77750005		-0.00050915		 0.00010959		0.00000000
O		1.18420576		0.53524077		4.77750005		 0.00012707		 0.00024933		0.00000000
O		4.96039381		11.12255843		1.59250002		-0.00012707		-0.00024933		0.00000000
O		1.40717906		1.83969000		0.19110016		-0.00001024		 0.00003545		 0.00001339
O		4.73742100		9.81810968		6.17889991		 0.00001024		-0.00003545		-0.00001339
O		4.07262078		4.27811002		6.17889991		 0.00036906		-0.00028400		 0.00057997
O		2.07197879		7.37968966		0.19110016		-0.00036906		 0.00028400		-0.00057997
O		4.73742100		9.81810968		3.37609971		 0.00001024		-0.00003545		 0.00001339
O		1.40717906		1.83969000		2.99389988		-0.00001024		 0.00003545		-0.00001339
O		2.07197879		7.37968966		2.99389988		-0.00036906		 0.00028400		 0.00057997
O		4.07262078		4.27811002		3.37609971		 0.00036906		-0.00028400		-0.00057997
