# total energy = -44013.002352 eV	

CRYSTAL	
PRIMVEC	
		9.81799975		0.00000000		0.00000000	
		0.00000000		18.04700533		0.00000000	
		-1.33411890		0.00000000		5.23108917	
PRIMCOORD
   82 1	
Si		2.35753443		1.51594825		1.55049485		-0.00030209		-0.00005029		 0.00002310	
Si		6.12634446		16.53105217		3.68059629		 0.00030209		 0.00005029		-0.00002310	
Si		6.12634446		1.51594825		3.68059629		 0.00030209		-0.00005029		-0.00002310	
Si		2.35753443		16.53105217		1.55049485		-0.00030209		 0.00005029		 0.00002310	
Si		7.26653430		10.53944797		1.55049485		-0.00018654		-0.00002143		 0.00004776	
Si		1.21734557		7.50755245		3.68059629		 0.00018654		 0.00002143		-0.00004776	
Si		1.21734557		10.53944797		3.68059629		 0.00018654		-0.00002143		-0.00004776	
Si		7.26653430		7.50755245		1.55049485		-0.00018654		 0.00002143		 0.00004776	
Si		1.76155730		3.08784241		4.20684402		-0.00004818		-0.00006101		 0.00011060	
Si		6.72232257		14.95915899		1.02424810		 0.00004818		 0.00006101		-0.00011060	
Si		6.72232257		3.08784241		1.02424810		 0.00004818		-0.00006101		-0.00011060	
Si		1.76155730		14.95915899		4.20684402		-0.00004818		 0.00006101		 0.00011060	
Si		6.67055717		12.11134311		4.20684402		 0.00015382		 0.00011238		 0.00013004	
Si		1.81332172		5.93565829		1.02424810		-0.00015382		-0.00011238		-0.00013004	
Si		1.81332172		12.11134311		1.02424810		-0.00015382		 0.00011238		-0.00013004	
Si		6.67055717		5.93565829		4.20684402		 0.00015382		-0.00011238		 0.00013004	
O		2.58846753		2.13856947		3.07797434		 0.00029952		 0.00034366		-0.00012252	
O		5.89541038		15.90843095		2.15311680		-0.00029952		-0.00034366		 0.00012252	
O		5.89541038		2.13856947		2.15311680		-0.00029952		 0.00034366		 0.00012252	
O		2.58846753		15.90843095		3.07797434		 0.00029952		-0.00034366		-0.00012252	
O		7.49746838		11.16207017		3.07797434		 0.00027602		 0.00033365		-0.00016354	
O		0.98641051		6.88493123		2.15311680		-0.00027602		-0.00033365		 0.00016354	
O		0.98641051		11.16207017		2.15311680		-0.00027602		 0.00033365		 0.00016354	
O		7.49746838		6.88493123		3.07797434		 0.00027602		-0.00033365		-0.00016354	
O		0.80703271		1.55204216		1.13566963		-0.00059159		-0.00006939		-0.00018636	
O		7.67684716		16.49495727		4.09542053		 0.00059159		 0.00006939		 0.00018636	
O		7.67684716		1.55204216		4.09542053		 0.00059159		-0.00006939		 0.00018636	
O		0.80703271		16.49495727		1.13566963		-0.00059159		 0.00006939		-0.00018636	
O		5.71603258		10.57554286		1.13566963		-0.00069086		-0.00005740		-0.00020701	
O		2.76784729		7.47145756		4.09542053		 0.00069086		 0.00005740		 0.00020701	
O		2.76784729		10.57554286		4.09542053		 0.00069086		-0.00005740		 0.00020701	
O		5.71603258		7.47145756		1.13566963		-0.00069086		 0.00005740		-0.00020701	
O		2.52914030		4.47565595		4.14982501		 0.00000061		 0.00023778		-0.00016611	
O		5.95473957		13.57134349		1.08126711		-0.00000061		-0.00023778		 0.00016611	
O		5.95473957		4.47565595		1.08126711		-0.00000061		 0.00023778		 0.00016611	
O		2.52914030		13.57134349		4.14982501		 0.00000061		-0.00023778		-0.00016611	
O		7.43813919		13.49915665		4.14982501		-0.00010068		 0.00011475		-0.00017066	
O		1.04573970		4.54784377		1.08126711		 0.00010068		-0.00011475		 0.00017066	
O		1.04573970		13.49915665		1.08126711		 0.00010068		 0.00011475		 0.00017066	
O		7.43813919		4.54784377		4.14982501		-0.00010068		-0.00011475		-0.00017066	
O		2.91896987		0.00000000		1.52800181		-0.00015809		-0.00000000		 0.00035338	
O		5.56491000		0.00000000		3.70308933		 0.00015809		-0.00000000		-0.00035338	
O		7.82796876		9.02349972		1.52800181		-0.00017821		0.00000000		 0.00036099	
O		0.65591013		9.02349972		3.70308933		 0.00017821		0.00000000		-0.00036099	
O		0.19753030		3.08964696		3.78731009		 0.00003517		 0.00023708		-0.00013414	
O		8.28634957		14.95735346		1.44378104		-0.00003517		-0.00023708		 0.00013414	
O		8.28634957		3.08964696		1.44378104		-0.00003517		 0.00023708		 0.00013414	
O		0.19753030		14.95735346		3.78731009		 0.00003517		-0.00023708		-0.00013414	
O		5.10653018		12.11314766		3.78731009		-0.00006384		 0.00022421		-0.00015548	
O		3.37734970		5.93385374		1.44378104		 0.00006384		-0.00022421		 0.00015548	
O		3.37734970		12.11314766		1.44378104		 0.00006384		 0.00022421		 0.00015548	
O		5.10653018		5.93385374		3.78731009		-0.00006384		-0.00022421		-0.00015548	
O		0.12189047		0.00000000		3.74127546		 0.00032366		0.00000000		 0.00001380	
O		8.36198940		0.00000000		1.48981470		-0.00032366		0.00000000		-0.00001380	
O		5.03089034		9.02349972		3.74127546		-0.00010871		0.00000000		-0.00008435	
O		3.45298953		9.02349972		1.48981470		 0.00010871		0.00000000		 0.00008435	
O		3.26959224		2.42371167		0.51892350		 0.00030728		-0.00028967		 0.00007064	
O		5.21428665		15.62328875		4.71216665		-0.00030728		 0.00028967		-0.00007064	
O		5.21428665		2.42371167		4.71216665		-0.00030728		-0.00028967		-0.00007064	
O		3.26959224		15.62328875		0.51892350		 0.00030728		 0.00028967		 0.00007064	
O		8.17859310		11.44721237		0.51892350		 0.00025405		-0.00031266		 0.00010681	
O		0.30528678		6.59978805		4.71216665		-0.00025405		 0.00031266		-0.00010681	
O		0.30528678		11.44721237		4.71216665		-0.00025405		-0.00031266		-0.00010681	
O		8.17859310		6.59978805		0.51892350		 0.00025405		 0.00031266		 0.00010681	
Ca		-0.66706043		5.00984644		2.61554557		0.00000000		 0.00041903		0.00000000	
Ca		-0.66706043		13.03715398		2.61554557		0.00000000		-0.00041903		0.00000000	
Ca		4.24193944		14.03334812		2.61554557		0.00000000		 0.00042751		0.00000000	
Ca		4.24193944		4.01365328		2.61554557		0.00000000		-0.00042751		0.00000000	
Mg		0.00000000		0.00000000		0.00000000		0.00000000		0.00000000		0.00000000	
Mg		4.90899987		9.02349972		0.00000000		0.00000000		0.00000000		0.00000000	
Mg		0.00000000		3.18709944		0.00000000		0.00000000		-0.00027769		0.00000000	
Mg		0.00000000		14.85990098		0.00000000		0.00000000		 0.00027769		0.00000000	
Mg		4.90899987		12.21060014		0.00000000		0.00000000		-0.00029989		0.00000000	
Mg		4.90899987		5.83640028		0.00000000		0.00000000		 0.00029989		0.00000000	
Mg		-0.66706043		1.58452698		2.61554557		0.00000000		-0.00020231		0.00000000	
Mg		-0.66706043		16.46247344		2.61554557		0.00000000		 0.00020231		0.00000000	
Mg		4.24193944		10.60802768		2.61554557		0.00000000		-0.00018059		0.00000000	
Mg		4.24193944		7.43897372		2.61554557		0.00000000		 0.00018059		0.00000000	
H		0.92650893		0.00000000		4.02793945		-0.00051408		0.00000000		 0.00015934	
H		7.55736996		0.00000000		1.20315071		 0.00051408		0.00000000		-0.00015934	
H		5.83550880		9.02349972		4.02793945		-0.00010967		-0.00000000		 0.00026265	
H		2.64837009		9.02349972		1.20315071		 0.00010967		-0.00000000		-0.00026265	
