# total energy = -24716.2849523 eV

CRYSTAL
PRIMVEC
		9.04136977		0.00000000		0.00000000
		0.00000000		8.72660352		0.00000000
		0.00000000		0.00000000		5.32169600
PRIMECORD
   40 1
Mg		0.00000000		7.89582641		1.33042490		0.00000000		 0.00077760		0.00000000
Mg		0.00000000		0.83077169		3.99127471		0.00000000		-0.00077760		0.00000000
Mg		4.52068488		5.19407164		3.99127471		-0.00000000		-0.00077760		0.00000000
Mg		4.52068488		3.53252827		1.33042490		-0.00000000		 0.00077760		0.00000000
Mg		0.00000000		2.30993074		1.33042490		0.00000000		 0.00040579		-0.00000000
Mg		0.00000000		6.41666916		3.99127471		0.00000000		-0.00040579		0.00000000
Mg		4.52068488		2.05336921		3.99127471		0.00000000		-0.00040579		-0.00000000
Mg		4.52068488		6.67323069		1.33042490		-0.00000000		 0.00040579		0.00000000
Si		2.63827170		0.79935654		0.35442531		-0.00074953		-0.00020311		 0.00054523
Si		6.40309807		7.92724246		4.96727520		 0.00074953		 0.00020311		-0.00054523
Si		1.88241319		3.56394250		3.01527512		 0.00074953		 0.00020311		 0.00054523
Si		7.15895658		5.16265559		2.30642449		-0.00074953		-0.00020311		-0.00054523
Si		6.40309807		0.79935654		2.30642449		 0.00074953		-0.00020311		-0.00054523
Si		2.63827170		7.92724246		3.01527512		-0.00074953		 0.00020311		 0.00054523
Si		7.15895658		3.56394250		4.96727520		-0.00074953		 0.00020311		-0.00054523
Si		1.88241319		5.16265559		0.35442531		 0.00074953		-0.00020311		 0.00054523
O		1.06055267		0.81681000		0.42147882		-0.00071881		 0.00056814		-0.00023743
O		7.98081800		7.90978990		4.90022079		 0.00071881		-0.00056814		 0.00023743
O		3.46013221		3.54648995		3.08232863		 0.00071881		-0.00056814		-0.00023743
O		5.58123665		5.18010905		2.23937098		-0.00071881		 0.00056814		 0.00023743
O		7.98081800		0.81681000		2.23937098		 0.00071881		 0.00056814		 0.00023743
O		1.06055267		7.90978990		3.08232863		-0.00071881		-0.00056814		-0.00023743
O		5.58123665		3.54648995		4.90022079		-0.00071881		-0.00056814		 0.00023743
O		3.46013221		5.18010905		0.42147882		 0.00071881		 0.00056814		-0.00023743
O		3.40588399		2.18688583		0.37251890		-0.00002710		-0.00071480		-0.00051824
O		5.63548577		6.53971407		4.94918071		 0.00002710		 0.00071480		 0.00051824
O		1.11480089		2.17641412		3.03336871		 0.00002710		 0.00071480		-0.00051824
O		7.92656978		6.55018578		2.28833091		-0.00002710		-0.00071480		 0.00051824
O		5.63548577		2.18688583		2.28833091		 0.00002710		-0.00071480		 0.00051824
O		3.40588399		6.53971407		3.03336871		-0.00002710		 0.00071480		-0.00051824
O		7.92656978		2.17641412		4.94918071		-0.00002710		 0.00071480		 0.00051824
O		1.11480089		6.55018578		0.37251890		 0.00002710		-0.00071480		-0.00051824
O		3.16628769		8.50232601		1.53903552		 0.00089498		 0.00052785		 0.00074157
O		5.87508207		0.22427299		3.78266409		-0.00089498		-0.00052785		-0.00074157
O		1.35439719		4.58757294		4.19988623		-0.00089498		-0.00052785		 0.00074157
O		7.68697257		4.13902606		1.12181428		 0.00089498		 0.00052785		-0.00074157
O		5.87508207		8.50232601		1.12181428		-0.00089498		 0.00052785		-0.00074157
O		3.16628769		0.22427299		4.19988623		 0.00089498		-0.00052785		 0.00074157
O		7.68697257		4.58757294		3.78266409		 0.00089498		-0.00052785		-0.00074157
O		1.35439719		4.13902606		1.53903552		-0.00089498		 0.00052785		 0.00074157
