# total energy = -11144.1652059 eV

CRYSTAL
PRIMVEC
		7.44100247		0.00000000		1.19056371
		0.00000000		4.41000123		0.00000000
		1.32671770		0.00000000		8.29200259
PRIMECORD
   12 1
Ca		1.04852966		1.10249993		5.66739102		-0.00088093		0.00000000		-0.00026215
Ca		7.71918976		3.30749979		3.81516850		 0.00088093		0.00000000		 0.00026215
Ca		3.81472691		3.30749979		2.07012015		 0.00030735		0.00000000		-0.00059374
Ca		4.95299251		1.10249993		7.41243862		-0.00030735		0.00000000		 0.00059374
Si		2.52504313		1.10249993		3.51954901		-0.00042372		0.00000000		-0.00004019
Si		6.24267705		3.30749979		5.96301051		 0.00042372		-0.00000000		 0.00004019
Si		2.88198316		3.30749979		7.61652040		 0.00028870		0.00000000		-0.00031551
Si		5.88573702		1.10249993		1.86603762		-0.00028870		0.00000000		 0.00031551
Mg		1.15721699		1.10249993		0.70080271		 0.00061288		-0.00000000		 0.00075018
Mg		7.61050244		3.30749979		8.78175682		-0.00061288		0.00000000		-0.00075018
Mg		3.39598482		3.30749979		5.09886748		-0.00028552		0.00000000		-0.00012283
Mg		5.37173385		1.10249993		4.38369204		 0.00028552		-0.00000000		 0.00012283
