# total energy = -20634.0207102 eV

CRYSTAL
PRIMVEC
		10.05000003		0.00000000		0.00000000
		0.00000000		5.31875147		0.00000000
		0.00000000		0.00000000		4.86999886
PRIMECORD
   28 1
Si		3.34665001		0.00000000		4.37666949		 0.00014740		-0.00000000		 0.00007090
Si		6.70335002		0.00000000		0.49333139		-0.00014740		-0.00000000		-0.00007090
Si		8.37165002		2.65937473		4.37666949		 0.00016823		0.00000000		 0.00003288
Si		1.67835000		2.65937473		0.49333139		-0.00016823		0.00000000		-0.00003288
Mg		0.00000000		0.00000000		0.00000000		0.00000000		0.00000000		0.00000000
Mg		5.02500001		2.65937473		0.00000000		0.00000000		0.00000000		0.00000000
Mg		5.02500001		0.00000000		2.43500044		0.00000000		0.00000000		0.00000000
Mg		0.00000000		2.65937473		2.43500044		0.00000000		0.00000000		0.00000000
Mg		2.51250001		1.32968837		2.43500044		-0.00000832		-0.00000119		 0.00000286
Mg		7.53750002		3.98906310		2.43500044		 0.00000832		 0.00000119		-0.00000286
Mg		7.53750002		1.32968837		2.43500044		 0.00000832		-0.00000119		-0.00000286
Mg		2.51250001		3.98906310		2.43500044		-0.00000832		 0.00000119		 0.00000286
O		8.23497002		0.00000000		1.08113981		-0.00043512		0.00000000		-0.00002522
O		1.81503001		0.00000000		3.78886006		 0.00043512		0.00000000		 0.00002522
O		3.20997001		2.65937473		1.08113981		-0.00042879		0.00000000		-0.00001337
O		6.84003002		2.65937473		3.78886006		 0.00042879		0.00000000		 0.00001337
O		3.35770501		0.00000000		1.14591105		-0.00013446		0.00000000		-0.00024590
O		6.69229502		0.00000000		3.72408882		 0.00013446		0.00000000		 0.00024590
O		8.38270502		2.65937473		1.14591105		-0.00013417		0.00000000		-0.00023470
O		1.66729500		2.65937473		3.72408882		 0.00013417		0.00000000		 0.00023470
O		0.91254000		1.43765753		1.09721076		 0.00016112		-0.00030814		 0.00001866
O		9.13746003		3.88109193		3.77278911		-0.00016112		 0.00030814		-0.00001866
O		9.13746003		1.43765753		3.77278911		-0.00016112		-0.00030814		-0.00001866
O		0.91254000		3.88109193		1.09721076		 0.00016112		 0.00030814		 0.00001866
O		5.93754002		4.09703326		1.09721076		 0.00015825		-0.00031767		 0.00001866
O		4.11246001		1.22171720		3.77278911		-0.00015825		 0.00031767		-0.00001866
O		4.11246001		4.09703326		3.77278911		-0.00015825		-0.00031767		-0.00001866
O		5.93754002		1.22171720		1.09721076		 0.00015825		 0.00031767		 0.00001866
