# total energy = -20636.9247443 eV

CRYSTAL
PRIMVEC
		10.05000003		0.00000000		0.00000000
		0.00000000		6.18125252		0.00000000
		0.00000000		0.00000000		4.86999886
PRIMECORD
   28 1
Si		3.34665001		0.00000000		4.37666949		-0.00070915		-0.00000000		 0.00075407
Si		6.70335002		0.00000000		0.49333139		 0.00070915		-0.00000000		-0.00075407
Si		8.37165002		3.09062525		4.37666949		-0.00068859		0.00000000		 0.00074608
Si		1.67835000		3.09062525		0.49333139		 0.00068859		0.00000000		-0.00074608
Mg		0.00000000		0.00000000		0.00000000		0.00000000		0.00000000		0.00000000
Mg		5.02500001		3.09062525		0.00000000		0.00000000		0.00000000		0.00000000
Mg		5.02500001		0.00000000		2.43500044		0.00000000		0.00000000		0.00000000
Mg		0.00000000		3.09062525		2.43500044		0.00000000		0.00000000		0.00000000
Mg		2.51250001		1.54531212		2.43500044		-0.00000608		-0.00001167		-0.00000822
Mg		7.53750002		4.63593738		2.43500044		 0.00000608		 0.00001167		 0.00000822
Mg		7.53750002		1.54531212		2.43500044		 0.00000608		-0.00001167		 0.00000822
Mg		2.51250001		4.63593738		2.43500044		-0.00000608		 0.00001167		-0.00000822
O		8.23497002		0.00000000		1.08113981		 0.00053342		0.00000000		 0.00014790
O		1.81503001		0.00000000		3.78886006		-0.00053342		0.00000000		-0.00014790
O		3.20997001		3.09062525		1.08113981		 0.00051498		-0.00000000		 0.00015726
O		6.84003002		3.09062525		3.78886006		-0.00051498		-0.00000000		-0.00015726
O		3.35770501		0.00000000		1.14591105		 0.00086875		-0.00000000		 0.00024037
O		6.69229502		0.00000000		3.72408882		-0.00086875		-0.00000000		-0.00024037
O		8.38270502		3.09062525		1.14591105		 0.00089088		-0.00000000		 0.00022939
O		1.66729500		3.09062525		3.72408882		-0.00089088		-0.00000000		-0.00022939
O		0.91254000		1.67079240		1.09721076		 0.00087690		-0.00077602		 0.00043310
O		9.13746003		4.51045810		3.77278911		-0.00087690		 0.00077602		-0.00043310
O		9.13746003		1.67079240		3.77278911		-0.00087690		-0.00077602		-0.00043310
O		0.91254000		4.51045810		1.09721076		 0.00087690		 0.00077602		 0.00043310
O		5.93754002		4.76141665		1.09721076		 0.00088779		-0.00076836		 0.00041981
O		4.11246001		1.41983285		3.77278911		-0.00088779		 0.00076836		-0.00041981
O		4.11246001		4.76141665		3.77278911		-0.00088779		-0.00076836		-0.00041981
O		5.93754002		1.41983285		1.09721076		 0.00088779		 0.00076836		 0.00041981
