# total energy = -24712.7726803 eV	

CRYSTAL	
PRIMVEC	
		9.03899958		0.00000000		0.00000000	
		0.00000000		8.69500237		0.00000000	
		0.00000000		0.00000000		4.70732116	
PRIMCOORD
   40 1	
O		1.09371895		0.75124753		0.27726137		-0.00017056		 0.00084049		 0.00018176	
O		1.09371895		7.94375033		2.63092376		-0.00017056		-0.00084049		 0.00018176	
O		5.61321874		5.09874781		2.07640102		-0.00017056		 0.00084049		-0.00018176	
O		5.61321874		3.59625185		4.43006341		-0.00017056		-0.00084049		-0.00018176	
O		3.40679894		2.13896988		0.49709436		 0.00010886		 0.00001024		 0.00036461	
O		3.40679894		6.55602978		2.85075584		 0.00010886		-0.00001024		 0.00036461	
O		7.92629783		6.48646926		1.85656893		 0.00010886		 0.00001024		-0.00036461	
O		7.92629783		2.20852950		4.21023223		 0.00010886		-0.00001024		-0.00036461	
O		3.23415405		8.35502481		1.29922151		 0.00033766		 0.00038619		-0.00009618	
O		3.23415405		0.33997395		3.65288390		 0.00033766		-0.00038619		-0.00009618	
O		7.75365384		4.00752453		1.05444088		 0.00033766		 0.00038619		 0.00009618	
O		7.75365384		4.68747423		3.40810327		 0.00033766		-0.00038619		 0.00009618	
O		7.93985633		7.90114591		4.11937943		 0.00020230		-0.00022466		-0.00031272	
O		7.93985633		0.79385375		1.76571795		 0.00020230		 0.00022466		-0.00031272	
O		3.42035744		3.55364563		2.94160683		 0.00020230		-0.00022466		 0.00031272	
O		3.42035744		5.14135313		0.58794534		 0.00020230		 0.00022466		 0.00031272	
O		5.61683344		6.61080793		4.51291307		 0.00019078		 0.00001793		 0.00034111	
O		5.61683344		2.08419173		2.15924978		 0.00019078		-0.00001793		 0.00034111	
O		1.09733455		2.26330765		2.54807500		 0.00019078		 0.00001793		-0.00034111	
O		1.09733455		6.43169111		0.19441261		 0.00019078		-0.00001793		-0.00034111	
O		5.84280843		8.27503057		2.64645818		-0.00023617		 0.00026568		 0.00023428	
O		5.84280843		0.41996909		0.29279579		-0.00023617		-0.00026568		 0.00023428	
O		1.32330863		3.92753119		4.41452989		-0.00023617		 0.00026568		-0.00023428	
O		1.32330863		4.76746847		2.06086660		-0.00023617		-0.00026568		-0.00023428	
Si		2.68187118		0.77124631		0.32198092		 0.00032301		 0.00030769		-0.00073589	
Si		2.68187118		7.92375245		2.67564421		 0.00032301		-0.00030769		-0.00073589	
Si		7.20137097		5.11874569		2.03168147		 0.00032301		 0.00030769		 0.00073589	
Si		7.20137097		3.57625307		4.38534386		 0.00032301		-0.00030769		 0.00073589	
Si		6.34447381		7.91592648		4.05771357		-0.00014106		-0.00006135		-0.00042646	
Si		6.34447381		0.77907228		1.70405209		-0.00014106		 0.00006135		-0.00042646	
Si		1.82497402		3.56842801		3.00327360		-0.00014106		-0.00006135		 0.00042646	
Si		1.82497402		5.12657166		0.64961121		-0.00014106		 0.00006135		 0.00042646	
Mg		9.01640118		0.83558862		3.37044499		-0.00063544		-0.00008625		 0.00049231	
Mg		9.01640118		7.85940923		1.01678170		-0.00063544		 0.00008625		 0.00049231	
Mg		4.49690139		5.18308891		3.69054308		-0.00063544		-0.00008625		-0.00049231	
Mg		4.49690139		3.51190985		1.33687979		-0.00063544		 0.00008625		-0.00049231	
Mg		0.05423400		2.28417598		1.01254602		 0.00002061		-0.00022724		 0.00045060	
Mg		0.05423400		6.41082368		3.36620751		 0.00002061		 0.00022724		 0.00045060	
Mg		4.57373379		6.63167536		1.34111727		 0.00002061		-0.00022724		-0.00045060	
Mg		4.57373379		2.06332430		3.69477966		 0.00002061		 0.00022724		-0.00045060	
