# total energy = -24716.3303978 eV	

CRYSTAL	
PRIMVEC	
		9.03899958		0.00000000		0.00000000	
		0.00000000		8.69500237		0.00000000	
		0.00000000		0.00000000		5.34344980	
PRIMCOORD
   40 1	
O		1.09371895		0.75124753		0.31472893		 0.00002252		 0.00083365		 0.00024298	
O		1.09371895		7.94375033		2.98645382		 0.00002252		-0.00083365		 0.00024298	
O		5.61321874		5.09874781		2.35699597		 0.00002252		 0.00083365		-0.00024298	
O		5.61321874		3.59625185		5.02872087		 0.00002252		-0.00083365		-0.00024298	
O		3.40679894		2.13896988		0.56426768		-0.00031976		-0.00045486		-0.00036240	
O		3.40679894		6.55602978		3.23599258		-0.00031976		 0.00045486		-0.00036240	
O		7.92629783		6.48646926		2.10745721		-0.00031976		-0.00045486		 0.00036240	
O		7.92629783		2.20852950		4.77918211		-0.00031976		 0.00045486		 0.00036240	
O		3.23415405		8.35502481		1.47479232		 0.00068373		 0.00029506		-0.00003642	
O		3.23415405		0.33997395		4.14651813		 0.00068373		-0.00029506		-0.00003642	
O		7.75365384		4.00752453		1.19693257		 0.00068373		 0.00029506		 0.00003642	
O		7.75365384		4.68747423		3.86865747		 0.00068373		-0.00029506		 0.00003642	
O		7.93985633		7.90114591		4.67605255		-0.00005452		-0.00011383		 0.00020037	
O		7.93985633		0.79385375		2.00432765		-0.00005452		 0.00011383		 0.00020037	
O		3.42035744		3.55364563		3.33912214		-0.00005452		-0.00011383		-0.00020037	
O		3.42035744		5.14135313		0.66739725		-0.00005452		 0.00011383		-0.00020037	
O		5.61683344		6.61080793		5.12276533		-0.00030208		-0.00035455		-0.00047597	
O		5.61683344		2.08419173		2.45104044		-0.00030208		 0.00035455		-0.00047597	
O		1.09733455		2.26330765		2.89241027		-0.00030208		-0.00035455		 0.00047597	
O		1.09733455		6.43169111		0.22068356		-0.00030208		 0.00035455		 0.00047597	
O		5.84280843		8.27503057		3.00408801		-0.00034739		-0.00006354		-0.00013153	
O		5.84280843		0.41996909		0.33236311		-0.00034739		 0.00006354		-0.00013153	
O		1.32330863		3.92753119		5.01108759		-0.00034739		-0.00006354		 0.00013153	
O		1.32330863		4.76746847		2.33936179		-0.00034739		 0.00006354		 0.00013153	
Si		2.68187118		0.77124631		0.36549195		-0.00020809		-0.00013082		-0.00005474	
Si		2.68187118		7.92375245		3.03721685		-0.00020809		 0.00013082		-0.00005474	
Si		7.20137097		5.11874569		2.30623295		-0.00020809		-0.00013082		 0.00005474	
Si		7.20137097		3.57625307		4.97795785		-0.00020809		 0.00013082		 0.00005474	
Si		6.34447381		7.91592648		4.60605363		 0.00031455		-0.00060005		 0.00006275	
Si		6.34447381		0.77907228		1.93432874		 0.00031455		 0.00060005		 0.00006275	
Si		1.82497402		3.56842801		3.40912106		 0.00031455		-0.00060005		-0.00006275	
Si		1.82497402		5.12657166		0.73739616		 0.00031455		 0.00060005		-0.00006275	
Mg		9.01640118		0.83558862		3.82591024		 0.00004936		-0.00051136		 0.00017611	
Mg		9.01640118		7.85940923		1.15418534		 0.00004936		 0.00051136		 0.00017611	
Mg		4.49690139		5.18308891		4.18926446		 0.00004936		-0.00051136		-0.00017611	
Mg		4.49690139		3.51190985		1.51753956		 0.00004936		 0.00051136		-0.00017611	
Mg		0.05423400		2.28417598		1.14937569		 0.00016168		 0.00016668		-0.00004865	
Mg		0.05423400		6.41082368		3.82110058		 0.00016168		-0.00016668		-0.00004865	
Mg		4.57373379		6.63167536		1.52234921		 0.00016168		 0.00016668		 0.00004865	
Mg		4.57373379		2.06332430		4.19407411		 0.00016168		-0.00016668		 0.00004865	
