# total energy = -24716.2838627 eV	

CRYSTAL	
PRIMVEC	
		9.03899958		0.00000000		0.00000000	
		0.00000000		8.69500237		0.00000000	
		0.00000000		0.00000000		5.47067372	
PRIMCOORD
   40 1	
O		1.09371895		0.75124753		0.32222316		-0.00002659		-0.00006270		 0.00025305	
O		1.09371895		7.94375033		3.05756002		-0.00002659		 0.00006270		 0.00025305	
O		5.61321874		5.09874781		2.41311460		-0.00002659		-0.00006270		-0.00025305	
O		5.61321874		3.59625185		5.14845146		-0.00002659		 0.00006270		-0.00025305	
O		3.40679894		2.13896988		0.57770325		-0.00041146		 0.00064961		 0.00013067	
O		3.40679894		6.55602978		3.31304101		-0.00041146		-0.00064961		 0.00013067	
O		7.92629783		6.48646926		2.15763361		-0.00041146		 0.00064961		-0.00013067	
O		7.92629783		2.20852950		4.89297137		-0.00041146		-0.00064961		-0.00013067	
O		3.23415405		8.35502481		1.50990613		 0.00007750		-0.00016762		-0.00005520	
O		3.23415405		0.33997395		4.24524389		 0.00007750		 0.00016762		-0.00005520	
O		7.75365384		4.00752453		1.22543073		 0.00007750		-0.00016762		 0.00005520	
O		7.75365384		4.68747423		3.96076849		 0.00007750		 0.00016762		 0.00005520	
O		7.93985633		7.90114591		4.78738772		 0.00037136		 0.00029649		 0.00046694	
O		7.93985633		0.79385375		2.05204996		 0.00037136		-0.00029649		 0.00046694	
O		3.42035744		3.55364563		3.41862467		 0.00037136		 0.00029649		-0.00046694	
O		3.42035744		5.14135313		0.68328690		 0.00037136		-0.00029649		-0.00046694	
O		5.61683344		6.61080793		5.24473579		-0.00027923		 0.00010081		-0.00032520	
O		5.61683344		2.08419173		2.50939893		-0.00027923		-0.00010081		-0.00032520	
O		1.09733455		2.26330765		2.96127660		-0.00027923		 0.00010081		 0.00032520	
O		1.09733455		6.43169111		0.22593883		-0.00027923		-0.00010081		 0.00032520	
O		5.84280843		8.27503057		3.07561361		 0.00042586		 0.00009077		-0.00015027	
O		5.84280843		0.41996909		0.34027585		 0.00042586		-0.00009077		-0.00015027	
O		1.32330863		3.92753119		5.13039877		 0.00042586		 0.00009077		 0.00015027	
O		1.32330863		4.76746847		2.39506191		 0.00042586		-0.00009077		 0.00015027	
Si		2.68187118		0.77124631		0.37419379		 0.00000104		 0.00024481		-0.00001364	
Si		2.68187118		7.92375245		3.10953155		 0.00000104		-0.00024481		-0.00001364	
Si		7.20137097		5.11874569		2.36114307		 0.00000104		 0.00024481		 0.00001364	
Si		7.20137097		3.57625307		5.09648083		 0.00000104		-0.00024481		 0.00001364	
Si		6.34447381		7.91592648		4.71572201		 0.00032118		 0.00023461		-0.00013752	
Si		6.34447381		0.77907228		1.98038425		 0.00032118		-0.00023461		-0.00013752	
Si		1.82497402		3.56842801		3.49029128		 0.00032118		 0.00023461		 0.00013752	
Si		1.82497402		5.12657166		0.75495261		 0.00032118		-0.00023461		 0.00013752	
Mg		9.01640118		0.83558862		3.91700347		-0.00049876		 0.00056918		 0.00033931	
Mg		9.01640118		7.85940923		1.18166570		-0.00049876		-0.00056918		 0.00033931	
Mg		4.49690139		5.18308891		4.28900892		-0.00049876		 0.00056918		-0.00033931	
Mg		4.49690139		3.51190985		1.55367206		-0.00049876		-0.00056918		-0.00033931	
Mg		0.05423400		2.28417598		1.17674216		 0.00001910		 0.00014911		 0.00058942	
Mg		0.05423400		6.41082368		3.91207992		 0.00001910		-0.00014911		 0.00058942	
Mg		4.57373379		6.63167536		1.55859470		 0.00001910		 0.00014911		-0.00058942	
Mg		4.57373379		2.06332430		4.29393246		 0.00001910		-0.00014911		-0.00058942	
