# total energy = -24714.4586077 eV	

CRYSTAL	
PRIMVEC	
		9.68100150		0.00000000		-1.16171784	
		0.00000000		8.73900039		0.00000000	
		1.02099929		0.00000000		4.75141573	
PRIMCOORD
   40 1	
Si		2.23823036		3.58298958		0.71107428		 0.00036979		 0.00004629		-0.00003815	
Si		8.46376458		5.15600984		2.87862360		-0.00036979		-0.00004629		 0.00003815	
Si		3.11276808		7.95248977		1.08377466		-0.00036979		 0.00004629		 0.00003815	
Si		7.58922686		0.78650965		2.50592225		 0.00036979		-0.00004629		-0.00003815	
Si		7.95326786		3.58298958		0.50291477		-0.00050525		 0.00009877		-0.00000677	
Si		2.74872806		5.15600984		3.08678215		 0.00050525		-0.00009877		 0.00000677	
Si		7.07873014		7.95248977		0.13021439		 0.00050525		 0.00009877		 0.00000677	
Si		3.62326480		0.78650965		3.45948350		-0.00050525		-0.00009877		-0.00000677	
O		3.97449858		3.67037997		0.01045444		 0.00039092		-0.00014007		 0.00010837	
O		6.72749636		5.06862140		3.57924345		-0.00039092		 0.00014007		-0.00010837	
O		1.37649792		8.03988016		1.78439451		-0.00039092		-0.00014007		-0.00010837	
O		9.32549702		0.69912023		1.80530241		 0.00039092		 0.00014007		 0.00010837	
O		8.50735983		2.18475010		-0.24592693		 0.00037432		 0.00034043		 0.00083319	
O		2.19463511		6.55425029		3.83562481		-0.00037432		-0.00034043		-0.00083319	
O		6.52463719		6.55425029		0.87905608		-0.00037432		 0.00034043		-0.00083319	
O		4.17735775		2.18475010		2.71064083		 0.00037432		-0.00034043		 0.00083319	
O		2.42209565		4.28210980		4.33958775		-0.00072000		-0.00037585		 0.00027290	
O		8.27990026		4.45688961		-0.74989084		 0.00072000		 0.00037585		-0.00027290	
O		3.94989721		8.65161000		2.20667789		 0.00072000		-0.00037585		-0.00027290	
O		6.75209675		0.08739039		1.38301999		-0.00072000		 0.00037585		 0.00027290	
O		8.79039698		4.28210980		1.62581800		 0.00004069		-0.00058427		 0.00004298	
O		1.91159795		4.45688961		1.96387989		-0.00004069		 0.00058427		-0.00004298	
O		7.26259542		8.65161000		3.75872786		-0.00004069		-0.00058427		-0.00004298	
O		3.43939951		0.08739039		-0.16903095		 0.00004069		 0.00058427		 0.00004298	
O		1.68413741		2.18475010		1.45991597		-0.00050648		-0.00034275		-0.00014080	
O		9.01785752		6.55425029		2.12978191		 0.00050648		 0.00034275		 0.00014080	
O		3.66686006		6.55425029		0.33493297		 0.00050648		-0.00034275		 0.00014080	
O		7.03513488		2.18475010		3.25476394		-0.00050648		 0.00034275		-0.00014080	
O		6.21699769		3.67037997		1.20353461		-0.00055063		-0.00038417		 0.00056714	
O		4.48499725		5.06862140		2.38616230		 0.00055063		 0.00038417		-0.00056714	
O		8.81499933		8.03988016		-0.57040643		 0.00055063		-0.00038417		-0.00056714	
O		1.88699561		0.69912023		4.16010335		-0.00055063		 0.00038417		 0.00056714	
Mg		0.25524933		0.79524898		1.18785393		-0.00002098		-0.00008930		-0.00015229	
Mg		0.76574605		7.94375141		3.56356277		 0.00002098		 0.00008930		 0.00015229	
Mg		5.09574911		5.16474917		0.60699404		 0.00002098		-0.00008930		 0.00015229	
Mg		5.60624583		3.57425122		2.98270288		-0.00002098		 0.00008930		-0.00015229	
Mg		0.20419888		6.02990988		0.95028315		-0.00011798		-0.00017667		 0.00018424	
Mg		0.81679553		2.70908954		3.80113356		 0.00011798		 0.00017667		-0.00018424	
Mg		5.14679761		1.66040968		0.84456482		 0.00011798		-0.00017667		-0.00018424	
Mg		5.55519733		7.07858973		2.74513209		-0.00011798		 0.00017667		 0.00018424	
