# total energy = -24716.0240643 eV	

CRYSTAL	
PRIMVEC	
		9.68100003		0.00000000		0.38723961	
		0.00000000		8.73900247		0.00000000	
		1.81222093		0.00000000		5.00971873	
PRIMCOORD
   40 1	
Si		2.39726589		3.58298956		1.08827528		-0.00037457		 0.00021386		 0.00000614	
Si		9.09595314		5.15601000		4.30868888		 0.00037457		-0.00021386		-0.00000614	
Si		3.34934362		7.95248982		1.61020680		 0.00037457		 0.00021386		-0.00000614	
Si		8.14387444		0.78650974		3.78675542		-0.00037457		-0.00021386		 0.00000614	
Si		8.18984267		3.58298956		1.80382661		-0.00015835		 0.00040423		-0.00008571	
Si		3.30337442		5.15601000		3.59313561		 0.00015835		-0.00040423		 0.00008571	
Si		7.23776591		7.95248982		1.28189508		 0.00015835		 0.00040423		 0.00008571	
Si		4.25545312		0.78650974		4.11506907		-0.00015835		-0.00040423		-0.00008571	
O		4.05362211		3.67038007		0.65586772		-0.00005484		-0.00040067		-0.00020971	
O		7.43959692		5.06862046		4.74109450		 0.00005484		 0.00040067		 0.00020971	
O		1.69298741		8.03987936		2.04261339		 0.00005484		-0.00040067		 0.00020971	
O		9.80023065		0.69912020		3.35434980		-0.00005484		 0.00040067		-0.00020971	
O		8.63316363		2.18475013		1.13034670		 0.00012311		-0.00001568		-0.00023833	
O		2.86005347		6.55424943		4.26661552		-0.00012311		 0.00001568		 0.00023833	
O		6.79444495		6.55424943		1.95537499		-0.00012311		-0.00001568		 0.00023833	
O		4.69877408		2.18475013		3.44158819		 0.00012311		 0.00001568		-0.00023833	
O		3.17375747		4.28210976		4.81732261		 0.00004361		 0.00041641		 0.00018252	
O		8.31946059		4.45688981		0.57963961		-0.00004361		-0.00041641		-0.00018252	
O		4.38507007		8.65161002		2.89088207		-0.00004361		 0.00041641		-0.00018252	
O		7.10814799		0.08738954		2.50608111		 0.00004361		-0.00041641		 0.00018252	
O		9.22557009		4.28210976		3.08450188		 0.00009480		-0.00023481		 0.00018790	
O		2.26764797		4.45688981		2.31246131		-0.00009480		 0.00023481		-0.00018790	
O		8.01425652		8.65161002		5.01094242		-0.00009480		-0.00023481		-0.00018790	
O		3.47896057		0.08738954		0.38601980		 0.00009480		 0.00023481		 0.00018790	
O		1.95394494		2.18475013		1.76175519		 0.00008904		-0.00015487		 0.00054222	
O		9.53927410		6.55424943		3.63520897		-0.00008904		 0.00015487		-0.00054222	
O		3.79266458		6.55424943		0.93672689		-0.00008904		-0.00015487		-0.00054222	
O		7.70055348		2.18475013		4.46023630		 0.00008904		 0.00015487		 0.00054222	
O		6.53348743		3.67038007		2.23623320		-0.00003201		-0.00005169		-0.00004695	
O		4.95973064		5.06862046		3.16072999		 0.00003201		 0.00005169		 0.00004695	
O		8.89412019		8.03987936		0.84948753		 0.00003201		-0.00005169		 0.00004695	
O		2.59909691		0.69912020		4.54747469		-0.00003201		 0.00005169		-0.00004695	
Mg		0.45305523		0.79524898		1.25243065		-0.00013451		 0.00056193		 0.00014878	
Mg		1.35916376		7.94375058		3.75729195		 0.00013451		-0.00056193		-0.00014878	
Mg		5.29355525		5.16474925		1.44605143		 0.00013451		 0.00056193		-0.00014878	
Mg		6.19966378		3.57425128		3.95091176		-0.00013451		-0.00056193		 0.00014878	
Mg		0.36244419		6.02991025		1.00194471		-0.00046305		-0.00021648		-0.00027634	
Mg		1.44977481		2.70909028		4.00777886		 0.00046305		 0.00021648		 0.00027634	
Mg		5.38416533		1.66040998		1.69653736		 0.00046305		-0.00021648		 0.00027634	
Mg		6.10905273		7.07858958		3.70042582		-0.00046305		 0.00021648		-0.00027634	
