# total energy = -12325.2755518 eV	

CRYSTAL	
PRIMVEC	
		2.21579988		0.00000000		0.00000000	
		0.00000000		8.05299893		0.00000000	
		0.00000000		0.00000000		6.10799860	
PRIMCOORD
   20 1	
O		0.00000000		0.58786899		1.52699987		0.00000000		-0.00026632		-0.00000669	
O		0.00000000		7.46513060		4.58099984		0.00000000		 0.00026632		 0.00000669	
O		1.10789994		4.61436868		1.52699987		0.00000000		-0.00027494		-0.00000616	
O		1.10789994		3.43863092		4.58099984		0.00000000		 0.00027494		 0.00000616	
O		0.00000000		2.92323875		2.69362781		0.00000000		-0.00074423		-0.00049860	
O		0.00000000		5.12976063		3.41437190		0.00000000		 0.00074423		 0.00049860	
O		0.00000000		5.12976063		5.74762778		0.00000000		 0.00073861		-0.00048106	
O		0.00000000		2.92323875		0.36037193		0.00000000		-0.00073861		 0.00048106	
O		1.10789994		6.94973954		2.69362781		0.00000000		-0.00076980		-0.00049472	
O		1.10789994		1.10326094		3.41437190		0.00000000		 0.00076980		 0.00049472	
O		1.10789994		1.10326094		5.74762778		0.00000000		 0.00075427		-0.00049065	
O		1.10789994		6.94973954		0.36037193		0.00000000		-0.00075427		 0.00049065	
Si		0.00000000		0.00000000		0.00000000		0.00000000		0.00000000		0.00000000	
Si		0.00000000		0.00000000		3.05399974		0.00000000		0.00000000		0.00000000	
Si		1.10789994		4.02649969		0.00000000		0.00000000		0.00000000		0.00000000	
Si		1.10789994		4.02649969		3.05399974		0.00000000		0.00000000		0.00000000	
Mg		0.00000000		2.03740893		4.58099984		0.00000000		 0.00004723		 0.00002598	
Mg		0.00000000		6.01559066		1.52699987		0.00000000		-0.00004723		-0.00002598	
Mg		1.10789994		6.06390972		4.58099984		0.00000000		 0.00006149		 0.00002053	
Mg		1.10789994		1.98909098		1.52699987		0.00000000		-0.00006149		-0.00002053	
