# total energy = -12344.3095889 eV	

CRYSTAL	
PRIMVEC	
		2.58509994		0.00000000		0.00000000	
		0.00000000		8.05299994		0.00000000	
		0.00000000		0.00000000		6.10799918	
PRIMCOORD
   20 1	
O		0.00000000		0.58786905		1.52699992		0.00000000		-0.00001795		 0.00001143	
O		0.00000000		7.46513089		4.58099977		0.00000000		 0.00001795		-0.00001143	
O		1.29254997		4.61436902		1.52699992		0.00000000		-0.00001817		 0.00001211	
O		1.29254997		3.43863092		4.58099977		0.00000000		 0.00001817		-0.00001211	
O		0.00000000		2.92323903		2.69362787		0.00000000		 0.00017585		-0.00030015	
O		0.00000000		5.12976091		3.41437183		-0.00000000		-0.00017585		 0.00030015	
O		0.00000000		5.12976091		5.74762798		0.00000000		-0.00017222		-0.00030838	
O		0.00000000		2.92323903		0.36037198		0.00000000		 0.00017222		 0.00030838	
O		1.29254997		6.94973978		2.69362787		0.00000000		 0.00017573		-0.00029994	
O		1.29254997		1.10326094		3.41437183		0.00000000		-0.00017573		 0.00029994	
O		1.29254997		1.10326094		5.74762798		0.00000000		-0.00017239		-0.00030786	
O		1.29254997		6.94973978		0.36037198		0.00000000		 0.00017239		 0.00030786	
Si		0.00000000		0.00000000		0.00000000		0.00000000		0.00000000		0.00000000	
Si		0.00000000		0.00000000		3.05399985		0.00000000		0.00000000		0.00000000	
Si		1.29254997		4.02649997		0.00000000		0.00000000		0.00000000		0.00000000	
Si		1.29254997		4.02649997		3.05399985		0.00000000		0.00000000		0.00000000	
Mg		0.00000000		2.03740904		4.58099977		0.00000000		-0.00034001		 0.00000413	
Mg		0.00000000		6.01559091		1.52699992		-0.00000000		 0.00034001		-0.00000413	
Mg		1.29254997		6.06390978		4.58099977		0.00000000		-0.00033976		 0.00000399	
Mg		1.29254997		1.98909093		1.52699992		0.00000000		 0.00033976		-0.00000399	
