# total energy = -20636.9189066 eV	

CRYSTAL	
PRIMVEC	
		4.74599854		-0.37967893		0.00000000	
		-0.81440167		10.17999940		0.00000000	
		0.00000000		0.00000000		5.97600211	
PRIMCOORD
   28 1	
Si		1.94579775		0.79412006		1.49400005		 0.00014653		 0.00012549		0.00000000	
Si		1.98580104		9.00619993		4.48199968		-0.00014653		-0.00012549		0.00000000	
Si		4.06454283		3.78247678		4.48199968		 0.00025703		-0.00001171		0.00000000	
Si		-0.13294309		6.01784369		1.49400005		-0.00025703		 0.00001171		0.00000000	
Mg		0.00000000		0.00000000		0.00000000		0.00000000		0.00000000		0.00000000	
Mg		1.96579987		4.90015976		0.00000000		0.00000000		0.00000000		0.00000000	
Mg		0.00000000		0.00000000		2.98800010		0.00000000		0.00000000		0.00000000	
Mg		1.96579987		4.90015976		2.98800010		-0.00000000		-0.00000000		0.00000000	
Mg		4.47943294		2.44548083		1.49400005		-0.00007231		 0.00033207		0.00000000	
Mg		-0.54783320		7.35483868		4.48199968		 0.00007231		-0.00033207		0.00000000	
Mg		2.15073581		2.08152898		4.48199968		 0.00026066		 0.00034172		0.00000000	
Mg		1.78086392		7.71879102		1.49400005		-0.00026066		-0.00034172		0.00000000	
O		3.56106700		0.64466907		1.49400005		 0.00020648		-0.00002258		0.00000000	
O		0.37053321		9.15565093		4.48199968		-0.00020648		 0.00002258		0.00000000	
O		0.93055404		4.05342504		4.48199968		 0.00024735		 0.00036493		0.00000000	
O		3.00104569		5.74689496		1.49400005		-0.00024735		-0.00036493		0.00000000	
O		0.68111386		4.46583696		1.49400005		 0.00037495		 0.00041631		0.00000000	
O		3.25048587		5.33448398		4.48199968		-0.00037495		-0.00041631		0.00000000	
O		3.37482411		0.26711219		4.48199968		-0.00009934		-0.00084122		0.00000000	
O		0.55677514		9.53320781		1.49400005		 0.00009934		 0.00084122		0.00000000	
O		1.18538005		1.55186675		0.19900090		 0.00021733		 0.00008713		-0.00050797	
O		2.74622016		8.24845277		5.77699884		-0.00021733		-0.00008713		 0.00050797	
O		3.41634812		3.13741873		5.77699884		-0.00007150		-0.00011473		-0.00031122	
O		0.51525114		6.66290079		0.19900090		 0.00007150		 0.00011473		 0.00031122	
O		2.74622016		8.24845277		3.18700100		-0.00021733		-0.00008713		-0.00050797	
O		1.18538005		1.55186675		2.78899873		 0.00021733		 0.00008713		 0.00050797	
O		0.51525114		6.66290079		2.78899873		 0.00007150		 0.00011473		-0.00031122	
O		3.41634812		3.13741873		3.18700100		-0.00007150		-0.00011473		 0.00031122	
