# total energy = -22446.7330062 eV

CRYSTAL
PRIMVEC
		9.05300002		0.00000000		0.00000000
		0.00000000		7.29315114		0.00000000
		-0.52464851		0.00000000		4.72194523
PRIMECORD
   40 1
Ca		6.64561268		0.49228766		0.42544664		-0.00017919		 0.00031035		-0.00051343
Ca		1.88274336		6.80086167		4.29649587		 0.00017919		-0.00031035		 0.00051343
Ca		2.14506490		4.13886322		1.93552507		 0.00017919		 0.00031035		 0.00051343
Ca		6.38329114		3.15428701		2.78641926		-0.00017919		-0.00031035		-0.00051343
Mg		1.97928999		1.19680570		1.90388845		-0.00003581		-0.00035912		 0.00040242
Mg		6.54906696		6.09634363		2.81805587		 0.00003581		 0.00035912		-0.00040242
Mg		6.81138940		4.84338127		0.45708416		 0.00003581		-0.00035912		-0.00040242
Mg		1.71696845		2.44976896		4.26485926		-0.00003581		 0.00035912		 0.00040242
Si		4.38151984		1.21066312		2.18484288		-0.00048456		 0.00008029		 0.00051876
Si		4.14683711		6.08248711		2.53709963		 0.00048456		-0.00008029		-0.00051876
Si		4.40915865		4.85723779		0.17612793		 0.00048456		 0.00008029		-0.00051876
Si		4.11919830		2.43591244		4.54581459		-0.00048456		-0.00008029		 0.00051876
Si		0.14788438		6.23053806		1.24375999		-0.00004927		-0.00010401		-0.00000180
Si		8.38047347		1.06261217		3.47818434		 0.00004927		 0.00010401		 0.00000180
Si		8.64279501		2.58396339		1.11721172		 0.00004927		-0.00010401		 0.00000180
Si		-0.11443807		4.70918684		3.60473079		-0.00004927		 0.00010401		-0.00000180
O		3.50493414		1.23472962		0.53310673		-0.00023171		-0.00055172		-0.00031505
O		5.02342190		6.05841971		4.18883578		 0.00023171		 0.00055172		 0.00031505
O		5.28574434		4.88130519		1.82786408		 0.00023171		-0.00055172		 0.00031505
O		3.24261170		2.41184504		2.89407934		-0.00023171		 0.00055172		-0.00031505
O		3.49747718		3.52332078		0.40467091		 0.00015959		 0.00030481		 0.00042987
O		5.03087976		3.76982945		4.31727341		-0.00015959		-0.00030481		-0.00042987
O		5.29320220		7.16989635		1.95630080		-0.00015959		 0.00030481		-0.00042987
O		3.23515474		0.12325388		2.76564172		 0.00015959		-0.00030481		 0.00042987
O		5.43097891		2.13835120		1.26217560		-0.00063188		 0.00000325		 0.00021282
O		3.09737713		5.15479813		3.45976782		 0.00063188		-0.00000325		-0.00021282
O		3.35969867		5.78492676		1.09879611		 0.00063188		 0.00000325		-0.00021282
O		5.16865737		1.50822437		3.62314731		-0.00063188		-0.00000325		 0.00021282
O		1.17630971		2.56427131		1.02371686		 0.00067324		 0.00017867		 0.00003452
O		7.35204724		4.72887892		3.69822565		-0.00067324		-0.00017867		-0.00003452
O		7.61436878		6.21084688		1.33725394		-0.00067324		 0.00017867		-0.00003452
O		0.91398817		1.08230426		3.38468857		 0.00067324		-0.00017867		 0.00003452
O		0.85195973		0.21077195		0.93636085		 0.00008771		-0.00031609		 0.00017863
O		7.67639631		7.08237828		3.78558167		-0.00008771		 0.00031609		-0.00017863
O		7.93871785		3.85734661		1.42460996		-0.00008771		-0.00031609		-0.00017863
O		0.58963819		3.43580272		3.29733346		 0.00008771		 0.00031609		 0.00017863
O		0.94307183		5.17084276		0.32817487		-0.00042486		 0.00035333		-0.00018189
O		7.58528420		2.12230656		4.39376764		 0.00042486		-0.00035333		 0.00018189
O		7.84760574		1.52426810		2.03279684		 0.00042486		 0.00035333		 0.00018189
O		0.68075029		5.76888213		2.68914658		-0.00042486		-0.00035333		-0.00018189
