# total energy = -22460.1489585 eV

CRYSTAL
PRIMVEC
		9.05300002		0.00000000		0.00000000
		0.00000000		8.44470179		0.00000000
		-0.52464851		0.00000000		4.72194523
PRIMECORD
   40 1
Ca		6.64561268		0.57001671		0.42544664		 0.00013710		-0.00042007		-0.00043978
Ca		1.88274336		7.87468327		4.29649587		-0.00013710		 0.00042007		 0.00043978
Ca		2.14506490		4.79236670		1.93552507		-0.00013710		-0.00042007		 0.00043978
Ca		6.38329114		3.65233328		2.78641926		 0.00013710		 0.00042007		-0.00043978
Mg		1.97928999		1.38577530		1.90388845		-0.00065818		-0.00010711		 0.00025689
Mg		6.54906696		7.05892468		2.81805587		 0.00065818		 0.00010711		-0.00025689
Mg		6.81138940		5.60812529		0.45708416		 0.00065818		-0.00010711		-0.00025689
Mg		1.71696845		2.83657469		4.26485926		-0.00065818		 0.00010711		 0.00025689
Si		4.38151984		1.40181994		2.18484288		-0.00042254		 0.00045427		-0.00007591
Si		4.14683711		7.04288004		2.53709963		 0.00042254		-0.00045427		 0.00007591
Si		4.40915865		5.62416993		0.17612793		 0.00042254		 0.00045427		 0.00007591
Si		4.11919830		2.82053005		4.54581459		-0.00042254		-0.00045427		-0.00007591
Si		0.14788438		7.21430675		1.24375999		-0.00008937		-0.00003499		-0.00063924
Si		8.38047347		1.23039323		3.47818434		 0.00008937		 0.00003499		 0.00063924
Si		8.64279501		2.99195676		1.11721172		 0.00008937		-0.00003499		 0.00063924
Si		-0.11443807		5.45274322		3.60473079		-0.00008937		 0.00003499		-0.00063924
O		3.50493414		1.42968779		0.53310673		 0.00006616		 0.00002967		-0.00064124
O		5.02342190		7.01501219		4.18883578		-0.00006616		-0.00002967		 0.00064124
O		5.28574434		5.65203778		1.82786408		-0.00006616		 0.00002967		 0.00064124
O		3.24261170		2.79266220		2.89407934		 0.00006616		-0.00002967		-0.00064124
O		3.49747718		4.07963488		0.40467091		-0.00012478		-0.00068588		-0.00025166
O		5.03087976		4.36506510		4.31727341		 0.00012478		 0.00068588		 0.00025166
O		5.29320220		8.30198487		1.95630080		 0.00012478		-0.00068588		 0.00025166
O		3.23515474		0.14271511		2.76564172		-0.00012478		 0.00068588		-0.00025166
O		5.43097891		2.47598645		1.26217560		 0.00044246		-0.00000775		-0.00042326
O		3.09737713		5.96871443		3.45976782		-0.00044246		 0.00000775		 0.00042326
O		3.35969867		6.69833644		1.09879611		-0.00044246		-0.00000775		 0.00042326
O		5.16865737		1.74636444		3.62314731		 0.00044246		 0.00000775		-0.00042326
O		1.17630971		2.96915587		1.02371686		 0.00008626		 0.00023279		 0.00060827
O		7.35204724		5.47554411		3.69822565		-0.00008626		-0.00023279		-0.00060827
O		7.61436878		7.19150586		1.33725394		-0.00008626		 0.00023279		-0.00060827
O		0.91398817		1.25319412		3.38468857		 0.00008626		-0.00023279		 0.00060827
O		0.85195973		0.24405168		0.93636085		-0.00032088		-0.00015436		 0.00008196
O		7.67639631		8.20064830		3.78558167		 0.00032088		 0.00015436		-0.00008196
O		7.93871785		4.46640167		1.42460996		 0.00032088		-0.00015436		-0.00008196
O		0.58963819		3.97829831		3.29733346		-0.00032088		 0.00015436		 0.00008196
O		0.94307183		5.98729209		0.32817487		-0.00061845		-0.00068411		-0.00005921
O		7.58528420		2.45740789		4.39376764		 0.00061845		 0.00068411		 0.00005921
O		7.84760574		1.76494210		2.03279684		 0.00061845		-0.00068411		 0.00005921
O		0.68075029		6.67975788		2.68914658		-0.00061845		 0.00068411		-0.00005921
