# total energy = -22450.1011 eV

CRYSTAL
PRIMVEC
		9.05300002		0.00000000		0.00000000
		0.00000000		7.48507474		0.00000000
		-0.52464851		0.00000000		4.72194523
PRIMECORD
   40 1
Ca		6.64561268		0.50524340		0.42544664		-0.00026475		 0.00043808		 0.00044674
Ca		1.88274336		6.97983314		4.29649587		 0.00026475		-0.00043808		-0.00044674
Ca		2.14506490		4.24777987		1.93552507		 0.00026475		 0.00043808		-0.00044674
Ca		6.38329114		3.23729487		2.78641926		-0.00026475		-0.00043808		 0.00044674
Mg		1.97928999		1.22830108		1.90388845		-0.00020920		-0.00063212		 0.00015109
Mg		6.54906696		6.25677365		2.81805587		 0.00020920		 0.00063212		-0.00015109
Mg		6.81138940		4.97083845		0.45708416		 0.00020920		-0.00063212		-0.00015109
Mg		1.71696845		2.51423719		4.26485926		-0.00020920		 0.00063212		 0.00015109
Si		4.38151984		1.24252244		2.18484288		-0.00040297		 0.00008072		 0.00057805
Si		4.14683711		6.24255320		2.53709963		 0.00040297		-0.00008072		-0.00057805
Si		4.40915865		4.98505981		0.17612793		 0.00040297		 0.00008072		-0.00057805
Si		4.11919830		2.50001493		4.54581459		-0.00040297		-0.00008072		 0.00057805
Si		0.14788438		6.39449966		1.24375999		-0.00037053		 0.00024222		 0.00037266
Si		8.38047347		1.09057508		3.47818434		 0.00037053		-0.00024222		-0.00037266
Si		8.64279501		2.65196229		1.11721172		 0.00037053		 0.00024222		-0.00037266
Si		-0.11443807		4.83311335		3.60473079		-0.00037053		-0.00024222		 0.00037266
O		3.50493414		1.26722265		0.53310673		-0.00032557		-0.00040702		 0.00004555
O		5.02342190		6.21785209		4.18883578		 0.00032557		 0.00040702		-0.00004555
O		5.28574434		5.00976092		1.82786408		 0.00032557		-0.00040702		-0.00004555
O		3.24261170		2.47531382		2.89407934		-0.00032557		 0.00040702		 0.00004555
O		3.49747718		3.61603980		0.40467091		 0.00035416		 0.00008807		 0.00042589
O		5.03087976		3.86903494		4.31727341		-0.00035416		-0.00008807		-0.00042589
O		5.29320220		7.35857717		1.95630080		-0.00035416		 0.00008807		-0.00042589
O		3.23515474		0.12649757		2.76564172		 0.00035416		-0.00008807		 0.00042589
O		5.43097891		2.19462374		1.26217560		-0.00045831		 0.00012713		 0.00045096
O		3.09737713		5.29045100		3.45976782		 0.00045831		-0.00012713		-0.00045096
O		3.35969867		5.93716201		1.09879611		 0.00045831		 0.00012713		-0.00045096
O		5.16865737		1.54791363		3.62314731		-0.00045831		-0.00012713		 0.00045096
O		1.17630971		2.63175237		1.02371686		-0.00014244		-0.00001685		 0.00091848
O		7.35204724		4.85332327		3.69822565		 0.00014244		 0.00001685		-0.00091848
O		7.61436878		6.37428974		1.33725394		 0.00014244		-0.00001685		-0.00091848
O		0.91398817		1.11078500		3.38468857		-0.00014244		 0.00001685		 0.00091848
O		0.85195973		0.21631872		0.93636085		 0.00032113		-0.00040703		-0.00029340
O		7.67639631		7.26875602		3.78558167		-0.00032113		 0.00040703		 0.00029340
O		7.93871785		3.95885609		1.42460996		-0.00032113		-0.00040703		 0.00029340
O		0.58963819		3.52621865		3.29733346		 0.00032113		 0.00040703		-0.00029340
O		0.94307183		5.30691840		0.32817487		-0.00005038		 0.00049859		-0.00023178
O		7.58528420		2.17815724		4.39376764		 0.00005038		-0.00049859		 0.00023178
O		7.84760574		1.56438104		2.03279684		 0.00005038		 0.00049859		 0.00023178
O		0.68075029		5.92069370		2.68914658		-0.00005038		-0.00049859		-0.00023178
