# total energy = -10316.7837555 eV

CRYSTAL
PRIMVEC
		4.97999984		0.00000000		0.00000000
		0.00000000		8.40749968		0.00000000
		0.00000000		0.00000000		2.75000073
PRIMECORD
   14 1
Si		0.00000000		0.00000000		0.00000000		0.00000000		0.00000000		0.00000000
Si		2.48999992		4.20374984		0.00000000		0.00000000		0.00000000		0.00000000
Mg		0.40786199		2.79885702		1.37499987		-0.00048611		-0.00015855		-0.00000000
Mg		4.57213786		5.60864365		1.37499987		 0.00048611		 0.00015855		-0.00000000
Mg		2.08213793		7.00260686		1.37499987		 0.00048611		-0.00015855		0.00000000
Mg		2.89786191		1.40489282		1.37499987		-0.00048611		 0.00015855		0.00000000
O		1.07767197		0.37665581		1.37499987		-0.00046589		-0.00010829		-0.00000000
O		3.90232788		8.03084386		1.37499987		 0.00046589		 0.00010829		-0.00000000
O		1.41232796		4.58040565		1.37499987		 0.00046589		-0.00010829		0.00000000
O		3.56767189		3.82709402		1.37499987		-0.00046589		 0.00010829		-0.00000000
O		1.95464994		2.59539514		0.00000000		 0.00010143		-0.00070149		0.00000000
O		3.02534991		5.81210503		0.00000000		-0.00010143		 0.00070149		0.00000000
O		0.53534998		6.79914498		0.00000000		-0.00010143		-0.00070149		0.00000000
O		4.44464986		1.60835519		0.00000000		 0.00010143		 0.00070149		0.00000000
