# total energy = -10316.6908394 eV

CRYSTAL
PRIMVEC
		4.97999984		0.00000000		0.00000000
		0.00000000		9.73499832		0.00000000
		0.00000000		0.00000000		2.75000073
PRIMECORD
   14 1
Si		0.00000000		0.00000000		0.00000000		0.00000000		0.00000000		0.00000000
Si		2.48999992		4.86749966		0.00000000		0.00000000		0.00000000		0.00000000
Mg		0.40786199		3.24078171		1.37499987		 0.00044982		-0.00006226		-0.00000000
Mg		4.57213786		6.49421860		1.37499987		-0.00044982		 0.00006226		-0.00000000
Mg		2.08213793		8.10828186		1.37499987		-0.00044982		-0.00006226		0.00000000
Mg		2.89786191		1.62671894		1.37499987		 0.00044982		 0.00006226		0.00000000
O		1.07767197		0.43612797		1.37499987		 0.00041803		 0.00031398		0.00000000
O		3.90232788		9.29887284		1.37499987		-0.00041803		-0.00031398		-0.00000000
O		1.41232796		5.30362762		1.37499987		-0.00041803		 0.00031398		-0.00000000
O		3.56767189		4.43137169		1.37499987		 0.00041803		-0.00031398		-0.00000000
O		1.95464994		3.00519485		0.00000000		-0.00021680		-0.00008320		-0.00000000
O		3.02534991		6.72980596		0.00000000		 0.00021680		 0.00008320		-0.00000000
O		0.53534998		7.87269451		0.00000000		 0.00021680		-0.00008320		-0.00000000
O		4.44464986		1.86230580		0.00000000		-0.00021680		 0.00008320		-0.00000000
