# total energy = -10316.9727597 eV

CRYSTAL
PRIMVEC
		4.97999984		0.00000000		0.00000000
		0.00000000		9.51375186		0.00000000
		0.00000000		0.00000000		2.75000073
PRIMECORD
   14 1
Si		0.00000000		0.00000000		0.00000000		0.00000000		0.00000000		0.00000000
Si		2.48999992		4.75687494		0.00000000		0.00000000		0.00000000		0.00000000
Mg		0.40786199		3.16712701		1.37499987		 0.00035333		 0.00003813		0.00000000
Mg		4.57213786		6.34662286		1.37499987		-0.00035333		-0.00003813		-0.00000000
Mg		2.08213793		7.92400295		1.37499987		-0.00035333		 0.00003813		0.00000000
Mg		2.89786191		1.58974792		1.37499987		 0.00035333		-0.00003813		0.00000000
O		1.07767197		0.42621578		1.37499987		 0.00006073		 0.00014599		0.00000000
O		3.90232788		9.08753459		1.37499987		-0.00006073		-0.00014599		0.00000000
O		1.41232796		5.18309071		1.37499987		-0.00006073		 0.00014599		0.00000000
O		3.56767189		4.33065866		1.37499987		 0.00006073		-0.00014599		-0.00000000
O		1.95464994		2.93689515		0.00000000		-0.00015966		 0.00017693		0.00000000
O		3.02534991		6.57685572		0.00000000		 0.00015966		-0.00017693		0.00000000
O		0.53534998		7.69376959		0.00000000		 0.00015966		 0.00017693		-0.00000000
O		4.44464986		1.81997979		0.00000000		-0.00015966		-0.00017693		-0.00000000
