# total energy = -117602.236197 eV	

CRYSTAL	
PRIMVEC	
		10.79499507		0.00013764		-0.00021176	
		0.00018000		14.35171592		0.00005294	
		-2.50210314		0.00001059		9.96255594	
PRIMCOORD
   156 1	
Si		8.34767317		0.01798160		0.73914296		 0.00008304		-0.00006773		 0.00003992	
Si		-0.05459914		14.33387725		9.22325734		-0.00008304		 0.00006772		-0.00003993	
Si		1.19625973		7.19384168		4.24204819		-0.00007463		-0.00007525		-0.00004839	
Si		7.09681430		7.15801718		5.72035211		 0.00007463		 0.00007524		 0.00004840	
Si		3.68850227		2.72459937		6.70700016		 0.00000755		 0.00022389		 0.00005584	
Si		4.60457283		11.62725949		3.25540014		-0.00000756		-0.00022389		-0.00005584	
Si		3.35339208		9.90046474		8.23673847		-0.00001613		 0.00022629		-0.00005592	
Si		4.93968196		4.45139412		1.72566183		 0.00001613		-0.00022628		 0.00005592	
Si		1.24004746		1.80064922		4.25258642		-0.00003306		-0.00015463		 0.00001376	
Si		7.05302763		12.55120963		5.70981388		 0.00003305		 0.00015463		-0.00001378	
Si		8.30399026		8.97634836		0.72871802		 0.00003711		-0.00014802		-0.00002741	
Si		-0.01091623		5.37551049		9.23368228		-0.00003711		 0.00014802		 0.00002740	
Si		6.99855661		1.76905146		5.70467870		 0.00002588		 0.00009724		 0.00013517	
Si		1.29451743		12.58280740		4.25772160		-0.00002589		-0.00009722		-0.00013516	
Si		0.04338539		8.94484589		9.23922510		-0.00002948		 0.00009946		-0.00014461	
Si		8.24968865		5.40701297		0.72317414		 0.00002949		-0.00009945		 0.00014462	
Mg		4.14644490		0.00007306		4.98117103		0.00000000		 0.00000001		 0.00000001	
Mg		5.39759071		7.17592572		-0.00007835		 0.00000001		0.00000000		-0.00000000	
Mg		4.48458432		2.51670611		3.55598181		-0.00039421		-0.00005077		 0.00000026	
Mg		3.80848972		11.83515274		6.40641849		 0.00039421		 0.00005075		-0.00000026	
Mg		5.05961329		9.69257889		1.42590921		 0.00052762		-0.00004620		-0.00010070	
Mg		3.23346075		4.65927996		8.53649109		-0.00052761		 0.00004619		 0.00010071	
Mg		5.39749753		0.00006988		-0.00010694		 0.00000001		-0.00000001		-0.00000000	
Mg		4.14653702		7.17592890		4.98119962		 0.00000001		-0.00000000		 0.00000001	
Mg		6.31135414		0.03374713		2.91305411		 0.00032110		-0.00018071		 0.00033358	
Mg		1.98171990		14.31811172		7.04934618		-0.00032110		 0.00018070		-0.00033360	
Mg		3.23266877		7.20937215		2.06826727		-0.00030422		-0.00019796		-0.00031991	
Mg		5.06040527		7.14248670		7.89413303		 0.00030420		 0.00019797		 0.00031991	
Mg		0.43063936		0.00897439		1.51501781		-0.00035794		-0.00036226		-0.00033670	
Mg		7.86243468		14.34288446		8.44738249		 0.00035793		 0.00036228		 0.00033669	
Mg		9.11374989		7.18475188		3.46567888		 0.00012543		-0.00029974		 0.00044744	
Mg		-0.82067585		7.16710698		6.49672037		-0.00012542		 0.00029975		-0.00044745	
Mg		-0.88721508		0.00315099		6.33061583		 0.00020761		 0.00016328		 0.00013385	
Mg		9.18028912		14.34870681		3.63178447		-0.00020761		-0.00016330		-0.00013385	
Mg		7.92976800		7.17892636		8.61257540		-0.00046253		 0.00013129		-0.00009388	
Mg		0.36330603		7.17293249		1.34982490		 0.00046251		-0.00013130		 0.00009389	
Mg		3.25630330		0.04051392		2.14511285		-0.00024874		-0.00062504		-0.00045953	
Mg		5.03677074		14.31134493		7.81728745		 0.00024876		 0.00062504		 0.00045952	
Mg		6.28748455		7.21659423		2.83655688		 0.00030626		-0.00062191		 0.00040144	
Mg		2.00558949		7.13526357		7.12584342		-0.00030625		 0.00062192		-0.00040145	
Mg		6.70134405		2.43433147		1.23074273		 0.00051176		-0.00018868		-0.00016662	
Mg		1.59173105		11.91752738		8.73165651		-0.00051174		 0.00018868		 0.00016660	
Mg		2.84287579		9.61027625		3.75004608		-0.00066684		-0.00018938		 0.00027970	
Mg		5.45019824		4.74158260		6.21235316		 0.00066684		 0.00018938		-0.00027971	
Mg		-1.66586187		2.48576904		9.65763214		 0.00018425		-0.00021656		 0.00024792	
Mg		9.95893591		11.86608876		0.30476816		-0.00018424		 0.00021655		-0.00024794	
Mg		8.70814268		9.66148194		5.28321913		-0.00041649		-0.00020861		 0.00002881	
Mg		-0.41506865		4.69037692		4.67918117		 0.00041651		 0.00020862		-0.00002882	
Mg		0.48291443		2.54844258		7.48463897		 0.00036494		 0.00010806		 0.00017397	
Mg		7.81015961		11.80341627		2.47776133		-0.00036493		-0.00010800		-0.00017394	
Mg		6.55928591		9.72435454		7.46054703		-0.00013505		 0.00010764		-0.00039368	
Mg		1.73378812		4.62750432		2.50185327		 0.00013505		-0.00010765		 0.00039367	
Mg		6.12235623		2.52256233		8.91253872		-0.00035682		-0.00020102		 0.00012421	
Mg		2.17071887		11.82929652		1.04986052		 0.00035683		 0.00020102		-0.00012420	
Mg		0.91921943		9.69827312		6.03289928		 0.00049997		-0.00021926		-0.00029575	
Mg		7.37385461		4.65358573		3.92950102		-0.00049996		 0.00021926		 0.00029576	
Mg		3.68049986		2.40909286		0.44642501		-0.00042747		 0.00038843		-0.00042570	
Mg		4.61257418		11.94276599		9.51597529		 0.00042747		-0.00038844		 0.00042572	
Mg		5.86283906		9.58479729		4.53648669		 0.00062010		 0.00046137		 0.00024804	
Mg		2.43023498		4.76706156		5.42591361		-0.00062009		-0.00046138		-0.00024804	
Mg		9.58762640		2.55738838		1.98280517		-0.00029834		-0.00074661		-0.00026951	
Mg		-1.29455237		11.79447047		7.97959513		 0.00029833		 0.00074663		 0.00026949	
Mg		-0.04191577		9.73349410		2.99930502		-0.00007036		-0.00075616		 0.00052062	
Mg		8.33498981		4.61836475		6.96309528		 0.00007035		 0.00075616		-0.00052063	
O		3.70400734		1.09155394		6.67274798		-0.00014906		-0.00028020		 0.00038503	
O		4.58906670		13.26030491		3.28965232		 0.00014906		 0.00028019		-0.00038502	
O		3.33782878		8.26740661		8.27077994		 0.00016222		-0.00028173		-0.00038130	
O		4.95524526		6.08445225		1.69162036		-0.00016224		 0.00028174		 0.00038130	
O		5.84274727		1.24783176		4.58887188		-0.00016730		-0.00010595		 0.00020188	
O		2.45032677		13.10402709		5.37352842		 0.00016730		 0.00010596		-0.00020188	
O		3.70125975		8.42373525		0.39255009		 0.00017017		-0.00009771		-0.00021629	
O		4.59181429		5.92812361		9.56985021		-0.00017016		 0.00009771		 0.00021630	
O		7.01182337		3.44254621		5.70017244		-0.00016950		 0.00030446		-0.00006741	
O		1.28125066		10.90931264		4.26222786		 0.00016950		-0.00030445		 0.00006741	
O		0.03002968		10.61834488		9.24316913		 0.00018139		 0.00030564		 0.00007033	
O		8.26304435		3.73351397		0.71923117		-0.00018139		-0.00030564		-0.00007032	
O		6.63649678		1.22982793		7.25059759		-0.00005159		 0.00012507		 0.00029451	
O		1.65657831		13.12203093		2.71180165		 0.00005161		-0.00012509		-0.00029450	
O		0.40547804		8.40554189		7.69330515		 0.00005186		 0.00012533		-0.00030813	
O		7.88759600		5.94631697		2.26909409		-0.00005185		-0.00012533		 0.00030816	
O		1.26267084		3.47744850		4.22801379		-0.00001188		 0.00004558		-0.00001824	
O		7.03040319		10.87441036		5.73438651		 0.00001187		-0.00004559		 0.00001824	
O		8.28128430		10.65316669		0.75305136		 0.00002085		 0.00005061		-0.00000179	
O		0.01179080		3.69869216		9.20934894		-0.00002086		-0.00005061		 0.00000177	
O		2.78564871		1.26222297		3.82420125		 0.00013898		-0.00017402		-0.00023821	
O		5.50742532		13.08963588		6.13819905		-0.00013899		 0.00017402		 0.00023820	
O		6.75841654		8.43794540		1.15706084		-0.00012988		-0.00017068		 0.00024386	
O		1.53465750		5.91391345		8.80533840		 0.00012988		 0.00017068		-0.00024385	
O		0.82455318		1.24946867		5.78633970		-0.00027703		 0.00005676		 0.00030746	
O		7.46852086		13.10238913		4.17605954		 0.00027704		-0.00005676		-0.00030744	
O		6.21733799		8.42532874		9.15742221		 0.00028676		 0.00004152		-0.00031122	
O		2.07573604		5.92653011		0.80497809		-0.00028675		-0.00004154		 0.00031121	
O		0.08458541		1.26771179		3.16280173		 0.00006998		-0.00044627		-0.00013512	
O		8.20848968		13.08414706		6.79959857		-0.00006999		 0.00044627		 0.00013510	
O		9.45965666		8.44370527		1.81837142		-0.00008453		-0.00044225		 0.00015287	
O		-1.16658263		5.90815358		8.14402782		 0.00008453		 0.00044223		-0.00015289	
O		4.06179173		3.47164521		5.27688645		 0.00008141		-0.00012221		-0.00018463	
O		4.23128231		10.88021364		4.68551385		-0.00008140		 0.00012222		 0.00018464	
O		2.98051026		10.64743647		9.66693370		-0.00010767		-0.00012361		 0.00018083	
O		5.31256378		3.70442239		0.29546660		 0.00010767		 0.00012361		-0.00018083	
O		4.74188859		3.42567635		7.76306736		-0.00009786		 0.00014308		-0.00002506	
O		3.55118544		10.92618250		2.19933294		 0.00009786		-0.00014309		 0.00002505	
O		2.30007140		10.60181489		7.18080573		 0.00007812		 0.00012239		 0.00002523	
O		5.99300263		3.75004396		2.78159457		-0.00007811		-0.00012239		-0.00002525	
O		4.97080220		1.20520871		1.70498347		-0.00024840		-0.00041674		 0.00041095	
O		3.32227183		13.14665014		8.25741683		 0.00024842		 0.00041675		-0.00041094	
O		4.57305235		8.38112067		3.27643956		 0.00025966		-0.00041871		-0.00041656	
O		3.72002169		5.97073819		6.68596074		-0.00025967		 0.00041870		 0.00041655	
O		4.77627100		1.06655568		9.66182287		 0.00018750		 0.00021007		-0.00005634	
O		3.51680409		13.28530318		0.30057743		-0.00018750		-0.00021007		 0.00005634	
O		2.26543594		8.24241258		5.28201634		-0.00017299		 0.00019945		 0.00003746	
O		6.02763810		6.10944628		4.68038396		 0.00017299		-0.00019943		-0.00003746	
O		8.01373190		1.08013373		2.18168168		-0.00012003		-0.00012780		-0.00005216	
O		0.27934214		13.27172513		7.78071756		 0.00012003		 0.00012779		 0.00005215	
O		1.53036300		8.25597792		2.79958464		 0.00012243		-0.00011701		 0.00004577	
O		6.76271103		6.09588093		7.16281460		-0.00012244		 0.00011701		-0.00004577	
O		-1.12872735		1.02080811		8.19547174		-0.00010805		 0.00000467		 0.00011719	
O		9.42180139		13.33105075		1.76692856		 0.00010804		-0.00000467		-0.00011717	
O		8.17058253		8.19673489		6.74796830		 0.00012194		 0.00000285		-0.00010962	
O		0.12249151		6.15512397		3.21443200		-0.00012195		-0.00000285		 0.00010962	
O		9.83804636		1.14253410		0.27987260		 0.00000460		 0.00001230		 0.00009030	
O		-1.54497232		13.20932475		9.68252770		-0.00000461		-0.00001229		-0.00009030	
O		-0.29424157		8.31842700		4.70124020		-0.00000271		 0.00001558		-0.00008902	
O		8.58731561		6.03343185		5.26116010		 0.00000272		-0.00001561		 0.00008903	
O		1.38062857		1.04912995		8.80312657		 0.00031138		 0.00036350		 0.00005997	
O		6.91244547		13.30272891		1.15927373		-0.00031137		-0.00036352		-0.00005997	
O		5.66119908		8.22487038		6.14065758		-0.00030331		 0.00036205		-0.00004640	
O		2.63187496		6.12698848		3.82174272		 0.00030329		-0.00036204		 0.00004641	
O		2.07648885		1.04280362		0.70835835		 0.00023846		 0.00001753		 0.00002478	
O		6.21658625		13.30905524		9.25404089		-0.00023846		-0.00001752		-0.00002478	
O		7.46751711		8.21861393		4.27256174		-0.00023373		 0.00003945		 0.00001081	
O		0.82555692		6.13324492		5.68983750		 0.00023374		-0.00003946		-0.00001079	
O		2.26064381		3.43526061		7.12283643		-0.00018953		-0.00024028		 0.00005938	
O		6.03243023		10.91659824		2.83956387		 0.00018952		 0.00024027		-0.00005938	
O		4.78127913		10.61095657		7.82043844		 0.00018215		-0.00023147		-0.00005267	
O		3.51179491		3.74090122		2.14196080		-0.00018216		 0.00023148		 0.00005267	
O		8.51928136		1.24082780		5.25704560		 0.00014660		-0.00045987		 0.00020579	
O		-0.22620732		13.11103105		4.70535364		-0.00014660		 0.00045987		-0.00020578	
O		-1.47736583		8.41657458		9.68664644		-0.00015064		-0.00045489		-0.00019515	
O		9.77043987		5.93528427		0.27575280		 0.00015063		 0.00045489		 0.00019515	
O		-0.86974594		3.54667284		6.33851236		 0.00010609		-0.00001533		 0.00015631	
O		9.16281998		10.80518602		3.62388794		-0.00010612		 0.00001530		-0.00015632	
O		7.91115642		10.72317243		8.60643753		-0.00006503		-0.00003317		-0.00017298	
O		0.38191762		3.62868642		1.35596277		 0.00006508		 0.00003307		 0.00017303	
O		9.03679313		3.55710414		3.63566815		-0.00023476		-0.00028141		 0.00012348	
O		-0.74371910		10.79475472		6.32673215		 0.00023476		 0.00028138		-0.00012347	
O		0.50813928		10.73261375		1.34596240		 0.00022530		-0.00028716		-0.00014023	
O		7.78493476		3.61924511		8.61643790		-0.00022529		 0.00028709		 0.00014018	
H		-1.29072057		2.75060032		5.94904867		-0.00040307		-0.00022917		 0.00059019	
H		9.58379461		11.60125854		4.01335163		 0.00040309		 0.00022920		-0.00059016	
H		8.33266680		9.92697921		8.99508488		 0.00041712		-0.00020521		-0.00054252	
H		-0.03959277		4.42487965		0.96731541		-0.00041717		 0.00020532		 0.00054247	
H		8.88066037		2.77173079		4.20466090		-0.00001961		-0.00038400		-0.00035049	
H		-0.58758634		11.58012806		5.75773940		 0.00001961		 0.00038404		 0.00035045	
H		0.66339853		9.94722452		0.77673883		 0.00004185		-0.00037112		 0.00036690	
H		7.62967551		4.40463433		9.18566147		-0.00004187		 0.00037118		-0.00036684	
