# total energy = -117601.611291 eV	

CRYSTAL	
PRIMVEC	
		10.48459727		0.00012706		0.00637398	
		0.00016941		13.97456078		-0.00009529	
		-2.42408017		-0.00009529		9.67389531	
PRIMCOORD
   156 1	
Si		8.10269651		0.01088552		0.71993527		-0.00006281		 0.00002303		 0.00005407	
Si		-0.04201636		13.96370808		8.96024825		 0.00006281		-0.00002303		-0.00005407	
Si		1.16992738		6.99813415		4.12349965		 0.00007155		 0.00001355		-0.00005797	
Si		6.89075277		6.97645945		5.55668387		-0.00007155		-0.00001354		 0.00005796	
Si		3.58318873		2.65172534		6.51582641		-0.00010959		 0.00017998		 0.00005370	
Si		4.47749142		11.32286826		3.16435711		 0.00010959		-0.00018000		-0.00005370	
Si		3.26560062		9.63887444		8.00113430		 0.00010476		 0.00016641		-0.00004879	
Si		4.79507953		4.33571916		1.67904922		-0.00010475		-0.00016640		 0.00004879	
Si		1.20195396		1.74827992		4.13060631		-0.00002840		 0.00000105		 0.00005508	
Si		6.85872619		12.22631368		5.54957721		 0.00002840		-0.00000105		-0.00005508	
Si		8.07075040		8.73553913		0.71269308		 0.00003247		 0.00000299		-0.00005570	
Si		-0.01007025		5.23905447		8.96749044		-0.00003247		-0.00000299		 0.00005570	
Si		6.80861848		1.73480034		5.54722985		-0.00029500		-0.00005797		-0.00013525	
Si		1.25206273		12.23979327		4.13295367		 0.00029500		 0.00005797		 0.00013525	
Si		0.03987335		8.72198014		8.96993733		 0.00029329		-0.00006760		 0.00012605	
Si		8.02080786		5.25261346		0.71024619		-0.00029329		 0.00006760		-0.00012605	
Mg		4.03025431		0.00001800		4.84013676		-0.00000000		0.00000000		-0.00000000	
Mg		5.24238228		6.98734392		0.00314358		-0.00000000		-0.00000001		0.00000000	
Mg		4.35962898		2.42416064		3.42820689		-0.00039911		-0.00007767		 0.00043852	
Mg		3.70105117		11.55043296		6.25197664		 0.00039912		 0.00007769		-0.00043853	
Mg		4.91303090		9.41164961		1.41424865		 0.00044283		-0.00005783		-0.00016718	
Mg		3.14765031		4.56294399		8.26593488		-0.00044284		 0.00005784		 0.00016718	
Mg		5.24229652		0.00006459		0.00318911		0.00000000		 0.00000001		0.00000000	
Mg		4.03034007		6.98729627		4.84009123		-0.00000001		0.00000000		 0.00000001	
Mg		6.13068686		0.03904748		2.83253450		 0.00016248		-0.00017784		 0.00026290	
Mg		1.92999329		13.93554612		6.84764903		-0.00016248		 0.00017785		-0.00026289	
Mg		3.14199314		7.02619976		2.01080513		-0.00018446		-0.00017393		-0.00031106	
Mg		4.91868701		6.94839384		7.66937839		 0.00018445		 0.00017393		 0.00031106	
Mg		0.41484206		0.00042458		1.46880649		-0.00006431		-0.00016754		 0.00001364	
Mg		7.64583809		13.97416902		8.21137703		 0.00006431		 0.00016753		-0.00001364	
Mg		8.85790994		6.98757156		3.37425256		 0.00000227		-0.00016710		-0.00001053	
Mg		-0.79722979		6.98702204		6.30593096		-0.00000228		 0.00016710		 0.00001054	
Mg		-0.85362677		0.00425849		6.14381916		 0.00000603		 0.00012525		 0.00022254	
Mg		8.91430692		13.97033405		3.53636436		-0.00000603		-0.00012524		-0.00022254	
Mg		7.70226577		6.99157065		8.37299755		-0.00001455		 0.00013146		-0.00001150	
Mg		0.35841438		6.98302295		1.30718597		 0.00001454		-0.00013146		 0.00001149	
Mg		3.16329408		0.03873196		2.08379563		 0.00006046		-0.00019647		 0.00001773	
Mg		4.89738607		13.93586164		7.59638683		-0.00006045		 0.00019647		-0.00001772	
Mg		6.10910323		7.02622729		2.75978541		-0.00001774		-0.00019871		-0.00017790	
Mg		1.95157798		6.94836631		6.92039811		 0.00001774		 0.00019871		 0.00017791	
Mg		6.50264435		2.36678004		1.19808087		 0.00042929		 0.00000442		 0.00011472	
Mg		1.55803580		11.60781357		8.48210265		-0.00042930		-0.00000442		-0.00011472	
Mg		2.77014259		9.35397890		3.64485748		-0.00048011		 0.00001997		 0.00002195	
Mg		5.29053756		4.62061470		6.03532604		 0.00048011		-0.00001997		-0.00002195	
Mg		-1.62490113		2.42598390		9.38831155		-0.00009124		 0.00023535		 0.00006834	
Mg		9.68558128		11.54860971		0.29187092		 0.00009124		-0.00023535		-0.00006833	
Mg		8.47359202		9.41302500		5.12684179		 0.00006218		 0.00030306		 0.00025433	
Mg		-0.41291187		4.56156861		4.55334067		-0.00006218		-0.00030307		-0.00025433	
Mg		0.45205994		2.46383917		7.28199948		 0.00017404		-0.00008397		 0.00002071	
Mg		7.60862021		11.51075443		2.39818404		-0.00017404		 0.00008396		-0.00002072	
Mg		6.39755845		9.45089721		7.23461500		-0.00029897		-0.00001341		 0.00016988	
Mg		1.66312170		4.52369639		2.44556852		 0.00029897		 0.00001341		-0.00016987	
Mg		5.95992360		2.45740061		8.67013812		-0.00000045		 0.00005488		-0.00030090	
Mg		2.10075760		11.51719299		1.01004541		 0.00000045		-0.00005488		 0.00030090	
Mg		0.88837341		9.44461323		5.84767175		 0.00010201		 0.00009551		 0.00018712	
Mg		7.17230674		4.52998037		3.83251177		-0.00010201		-0.00009551		-0.00018712	
Mg		3.57119359		2.35361280		0.43699322		-0.00032243		-0.00004379		-0.00023871	
Mg		4.48948656		11.62098080		9.24319030		 0.00032244		 0.00004379		 0.00023871	
Mg		5.70068702		9.34066872		4.40713204		 0.00039199		 0.00003563		 0.00002304	
Mg		2.35999419		4.63392488		5.27305148		-0.00039199		-0.00003564		-0.00002305	
Mg		9.31238924		2.47978576		1.92538539		 0.00009662		-0.00003590		 0.00008970	
Mg		-1.25170909		11.49480785		7.75479813		-0.00009663		 0.00003590		-0.00008970	
Mg		-0.03880290		9.46696238		2.91854082		-0.00022749		-0.00003493		-0.00030360	
Mg		8.09948305		4.50763122		6.76164270		 0.00022749		 0.00003493		 0.00030360	
O		3.60011471		1.04310114		6.48986781		-0.00017229		 0.00010187		 0.00011199	
O		4.46056650		12.93149246		3.19031571		 0.00017228		-0.00010186		-0.00011199	
O		3.24840677		8.03026930		8.02728560		 0.00016899		 0.00010355		-0.00012160	
O		4.81227338		5.94432431		1.65289792		-0.00016899		-0.00010355		 0.00012160	
O		5.67493489		1.21136457		4.45318031		-0.00033672		-0.00018860		-0.00003177	
O		2.38574632		12.76322903		5.22700321		 0.00033671		 0.00018860		 0.00003177	
O		3.59766359		8.19879637		0.39016461		 0.00033650		-0.00020254		 0.00001865	
O		4.46301762		5.77579617		9.29001785		-0.00033651		 0.00020254		-0.00001864	
O		6.82054586		3.38311154		5.54165315		-0.00008031		 0.00010601		 0.00007737	
O		1.24013428		10.59148207		4.13853037		 0.00008031		-0.00010600		-0.00007737	
O		0.02794808		10.37028075		8.97514027		 0.00009252		 0.00010185		-0.00007680	
O		8.03273207		3.60431285		0.70504325		-0.00009253		-0.00010185		 0.00007680	
O		6.45580833		1.20264959		7.07078265		-0.00025332		 0.00017624		-0.00006424	
O		1.60487182		12.77194401		2.60940087		 0.00025332		-0.00017623		 0.00006424	
O		0.39284549		8.18973940		7.44647135		 0.00023960		 0.00016793		 0.00003945	
O		7.66783466		5.78485421		2.23371217		-0.00023960		-0.00016794		-0.00003945	
O		1.22350583		3.39768909		4.10947584		-0.00004399		 0.00012264		 0.00014303	
O		6.83717432		10.57690451		5.57070768		 0.00004399		-0.00012264		-0.00014303	
O		8.04896665		10.38493137		0.73409460		 0.00005942		 0.00013079		-0.00015105	
O		0.01171456		3.58966223		8.94608892		-0.00005942		-0.00013078		 0.00015105	
O		2.72203919		1.20927662		3.71433911		-0.00002363		 0.00002257		-0.00001410	
O		5.33864096		12.76531698		5.96584441		 0.00002363		-0.00002258		 0.00001410	
O		6.55059740		8.19649454		1.12885970		 0.00002973		 0.00002453		 0.00001832	
O		1.51008381		5.77809906		8.55132382		-0.00002973		-0.00002453		-0.00001833	
O		0.79341917		1.19563610		5.64037883		-0.00014179		 0.00013304		-0.00005132	
O		7.26726098		12.77895750		4.03980469		 0.00014179		-0.00013304		 0.00005132	
O		6.05522513		8.18288367		8.87675234		 0.00014888		 0.00013054		 0.00006033	
O		2.00545502		5.79170994		0.80343118		-0.00014888		-0.00013055		-0.00006034	
O		0.06281754		1.21831348		3.05683068		-0.00005495		-0.00004583		 0.00012609	
O		7.99786261		12.75628013		6.62335284		 0.00005495		 0.00004583		-0.00012608	
O		9.20997681		8.20576751		1.78653965		 0.00004189		-0.00004999		-0.00010865	
O		-1.14929666		5.76882609		7.89364281		-0.00004188		 0.00004999		 0.00010864	
O		3.95666348		3.38420739		5.09464792		-0.00011934		-0.00037954		-0.00016938	
O		4.10401773		10.59038621		4.58553560		 0.00011933		 0.00037954		 0.00016936	
O		2.89235775		10.37160531		9.42223656		 0.00011485		-0.00037955		 0.00017631	
O		5.16832240		3.60298723		0.25794697		-0.00011486		 0.00037955		-0.00017630	
O		4.62893158		3.35398607		7.55407507		 0.00014316		 0.00016880		-0.00003691	
O		3.43174857		10.62060753		2.12610845		-0.00014316		-0.00016880		 0.00003691	
O		2.21969260		10.34126434		6.96316940		-0.00014219		 0.00016613		 0.00003322	
O		5.84098860		3.63332926		2.71701412		 0.00014219		-0.00016613		-0.00003321	
O		4.82696741		1.18871578		1.66628539		-0.00002160		 0.00009430		 0.00030739	
O		3.23371274		12.78587782		8.01389813		 0.00002160		-0.00009431		-0.00030739	
O		4.44545954		8.17590194		3.17718659		 0.00002719		 0.00009544		-0.00030697	
O		3.61522061		5.79869060		6.50299693		-0.00002720		-0.00009544		 0.00030698	
O		4.61979307		1.04491910		9.36566805		 0.00006150		 0.00005701		 0.00028301	
O		3.44088707		12.92967450		0.31451547		-0.00006150		-0.00005701		-0.00028300	
O		2.22863311		8.03226408		5.15154995		-0.00005509		 0.00005625		-0.00029023	
O		5.83204704		5.94232953		4.52863252		 0.00005509		-0.00005626		 0.00029022	
O		7.77866243		1.06095145		2.14320595		-0.00008439		-0.00015205		-0.00009747	
O		0.28201772		12.91364215		7.53697757		 0.00008439		 0.00015205		 0.00009747	
O		1.49400593		8.04804972		2.70017391		 0.00008073		-0.00015473		 0.00010548	
O		6.56667422		5.92654282		6.98000855		-0.00008074		 0.00015473		-0.00010548	
O		-1.09496963		1.02606611		7.94251384		 0.00025930		-0.00001566		-0.00008662	
O		9.15564978		12.94852749		1.73766968		-0.00025930		 0.00001566		 0.00008660	
O		7.94351652		8.01360061		6.57433358		-0.00026114		-0.00001213		 0.00008484	
O		0.11716363		5.96099299		3.10584888		 0.00026114		 0.00001212		-0.00008483	
O		9.56662087		1.11826006		0.27046092		-0.00038014		-0.00027284		 0.00009063	
O		-1.50594072		12.85633355		9.40972260		 0.00038014		 0.00027284		-0.00009063	
O		-0.29410287		8.10536574		4.57279718		 0.00038937		-0.00026303		-0.00009023	
O		8.35478302		5.86922786		5.10738634		-0.00038938		 0.00026304		 0.00009023	
O		1.37965977		1.03596483		8.54782025		-0.00006103		 0.00017734		-0.00002738	
O		6.68102038		12.93862771		1.13236221		 0.00006103		-0.00017733		 0.00002738	
O		5.46892841		8.02319545		5.96934375		 0.00004741		 0.00018271		 0.00003038	
O		2.59175279		5.95139815		3.71083977		-0.00004740		-0.00018271		-0.00003039	
O		2.00830319		1.03718139		0.71293237		 0.00029570		-0.00013590		-0.00034136	
O		6.05237696		12.93741221		8.96725115		-0.00029569		 0.00013590		 0.00034136	
O		7.26423176		8.02439190		4.13014044		-0.00029482		-0.00012407		 0.00035452	
O		0.79644945		5.95020170		5.55004308		 0.00029481		 0.00012407		-0.00035452	
O		2.16790246		3.35946006		6.91858015		-0.00017900		 0.00007278		 0.00003052	
O		5.89277875		10.61513354		2.76160337		 0.00017901		-0.00007278		-0.00003051	
O		4.68104571		10.34621846		7.59816456		 0.00017935		 0.00008068		-0.00002227	
O		3.37963444		3.62837514		2.08201896		-0.00017934		-0.00008069		 0.00002228	
O		8.31791560		1.22186046		5.10493946		-0.00024333		 0.00007931		 0.00014520	
O		-0.25723545		12.75273315		4.57524407		 0.00024332		-0.00007931		-0.00014520	
O		-1.46938777		8.20897567		9.41217901		 0.00024684		 0.00007477		-0.00013539	
O		9.53006792		5.76561793		0.26800451		-0.00024682		-0.00007477		 0.00013540	
O		-0.84482708		3.43727339		6.15904470		-0.00001993		 0.00027103		 0.00020006	
O		8.90550723		10.53732021		3.52113882		 0.00001993		-0.00027101		-0.00020005	
O		7.69297904		10.42497306		8.35885622		 0.00003231		 0.00026488		-0.00022507	
O		0.36770111		3.54962054		1.32132730		-0.00003232		-0.00026485		 0.00022504	
O		8.78047037		3.44368125		3.53665447		-0.00017733		-0.00060902		 0.00025119	
O		-0.71979022		10.53091235		6.14352905		 0.00017734		 0.00060902		-0.00025120	
O		0.49296774		10.43054447		1.30702609		 0.00016489		-0.00061045		-0.00024690	
O		7.56771347		3.54404913		8.37315743		-0.00016490		 0.00061047		 0.00024691	
H		-1.26516326		2.63852846		5.77502643		-0.00031352		 0.00008642		 0.00064638	
H		9.32584341		11.33606514		3.90515710		 0.00031351		-0.00008644		-0.00064638	
H		8.11353968		9.62623872		8.74262462		 0.00031509		 0.00007877		-0.00063899	
H		-0.05285953		4.34835488		0.93755890		-0.00031507		-0.00007880		 0.00063900	
H		8.63432844		2.64849706		4.09424289		 0.00002220		 0.00047731		-0.00037100	
H		-0.57364723		11.32609654		5.58594063		-0.00002220		-0.00047732		 0.00037100	
H		0.63863744		9.63542064		0.74923333		-0.00001262		 0.00046800		 0.00037701	
H		7.42204377		4.33917191		8.93095019		 0.00001263		-0.00046802		-0.00037702	
