# total energy = -117600.553692 eV	

CRYSTAL	
PRIMVEC	
		10.43517248		0.00012706		0.00692455	
		0.00015882		13.91410330		-0.00010588	
		-2.41212632		-0.00010588		9.62835632	
PRIMCOORD
   156 1	
Si		8.06433936		0.01034871		0.71658099		-0.00022965		-0.00002748		 0.00010233	
Si		-0.04113014		13.90377153		8.91858870		 0.00022965		 0.00002747		-0.00010234	
Si		1.16483878		6.96736648		4.10460536		 0.00024308		-0.00003949		-0.00011109	
Si		6.85837043		6.94675376		5.53056434		-0.00024308		 0.00003949		 0.00011109	
Si		3.56615476		2.63993455		6.48605084		-0.00000672		 0.00052002		-0.00007447	
Si		4.45705446		11.27418570		3.14911886		 0.00000672		-0.00051998		 0.00007447	
Si		3.25111518		9.59685385		7.96308632		 0.00000163		 0.00053319		 0.00008270	
Si		4.77209404		4.31726640		1.67208338		-0.00000162		-0.00053324		-0.00008270	
Si		1.19645032		1.74054115		4.11137004		-0.00019835		 0.00010156		 0.00008072	
Si		6.82675890		12.17357909		5.52380072		 0.00019836		-0.00010155		-0.00008072	
Si		8.03281783		8.69760021		0.70969244		 0.00020656		 0.00010463		-0.00008235	
Si		-0.00960967		5.21652003		8.92547726		-0.00020655		-0.00010463		 0.00008235	
Si		6.77841304		1.72925964		5.52139830		-0.00036931		-0.00010510		-0.00000934	
Si		1.24479618		12.18486061		4.11377139		 0.00036931		 0.00010511		 0.00000934	
Si		0.03859961		8.68621705		8.92798979		 0.00036731		-0.00011005		-0.00000256	
Si		7.98460961		5.22790213		0.70718097		-0.00036731		 0.00011005		 0.00000256	
Mg		4.01152308		0.00000000		4.81763726		 0.00000002		 0.00000001		-0.00000000	
Mg		5.21766989		6.95711094		0.00340828		 0.00000001		-0.00000001		-0.00000001	
Mg		4.34018200		2.41073506		3.40957095		-0.00066195		-0.00023006		 0.00019496	
Mg		3.68302616		11.50338518		6.22559875		 0.00066195		 0.00023007		-0.00019497	
Mg		4.88918249		9.36809270		1.41057567		 0.00067175		-0.00022557		 0.00011099	
Mg		3.13402673		4.54602648		8.22459403		-0.00067175		 0.00022558		-0.00011100	
Mg		5.21758836		0.00006141		0.00346122		 0.00000002		0.00000000		0.00000000	
Mg		4.01160461		6.95706012		4.81758538		0.00000000		-0.00000000		 0.00000002	
Mg		6.10152857		0.03958430		2.81891409		 0.00016440		-0.00002358		 0.00041823	
Mg		1.92168065		13.87453595		6.81625561		-0.00016440		 0.00002358		-0.00041823	
Mg		3.12772687		6.99655654		2.00218650		-0.00018636		-0.00002650		-0.00046780	
Mg		4.89548235		6.91756265		7.63298426		 0.00018635		 0.00002651		 0.00046780	
Mg		0.41183189		0.00030176		1.46185335		-0.00011565		-0.00035898		-0.00004730	
Mg		7.61137732		13.91381848		8.17331635		 0.00011563		 0.00035898		 0.00004730	
Mg		8.81739813		6.95721682		3.35894655		 0.00008136		-0.00035333		 0.00006068	
Mg		-0.79418891		6.95690342		6.27622315		-0.00008137		 0.00035334		-0.00006067	
Mg		-0.84853818		0.00324205		6.11465875		-0.00011168		 0.00030662		-0.00005210	
Mg		8.87174739		13.91087820		3.52051095		 0.00011166		-0.00030661		 0.00005210	
Mg		7.66560906		6.96035299		8.33441276		 0.00012156		 0.00030872		 0.00025025	
Mg		0.35760016		6.95376725		1.30075694		-0.00012157		-0.00030872		-0.00025026	
Mg		3.14808971		0.03877114		2.07439031		 0.00019172		-0.00003949		 0.00003194	
Mg		4.87511951		13.87534805		7.56077939		-0.00019171		 0.00003950		-0.00003194	
Mg		6.08085444		6.99602819		2.74692311		-0.00015027		-0.00004511		-0.00018034	
Mg		1.94235478		6.91809205		6.88824659		 0.00015028		 0.00004511		 0.00018034	
Mg		6.47155904		2.35589028		1.19254017		 0.00032072		 0.00020629		 0.00016782	
Mg		1.55165018		11.55822890		8.44263059		-0.00032073		-0.00020628		-0.00016782	
Mg		2.75781498		9.31285828		3.62813479		-0.00037916		 0.00022719		-0.00002453	
Mg		5.26539424		4.60126196		6.00703597		 0.00037917		-0.00022719		 0.00002453	
Mg		-1.61849434		2.41545519		9.34535815		-0.00001364		 0.00027754		 0.00008370	
Mg		9.64170355		11.49866505		0.28981155		 0.00001364		-0.00027754		-0.00008368	
Mg		8.43560545		9.37226967		5.10217810		-0.00000381		 0.00035925		 0.00021359	
Mg		-0.41239623		4.54184952		4.53299159		 0.00000382		-0.00035926		-0.00021359	
Mg		0.44812120		2.45060311		7.24868645		-0.00015254		-0.00000853		 0.00010940	
Mg		7.57508801		11.46351713		2.38648324		 0.00015252		 0.00000852		-0.00010940	
Mg		6.36987931		9.40752029		7.20018600		 0.00002690		 0.00004515		 0.00006987	
Mg		1.65332991		4.50659995		2.43498369		-0.00002690		-0.00004515		-0.00006987	
Mg		5.93389513		2.44571781		8.63042465		-0.00000302		 0.00003758		 0.00000503	
Mg		2.08931409		11.46840137		1.00474505		 0.00000301		-0.00003758		-0.00000504	
Mg		0.88291847		9.40272817		5.81949179		 0.00009580		 0.00007046		-0.00010367	
Mg		7.14029075		4.51139208		3.81567791		-0.00009582		-0.00007047		 0.00010367	
Mg		3.55475148		2.34383902		0.43471044		-0.00044003		 0.00003648		 0.00002150	
Mg		4.46845774		11.57028122		9.20045926		 0.00044005		-0.00003648		-0.00002149	
Mg		5.67369080		9.30067467		4.38711543		 0.00051144		 0.00011784		-0.00021615	
Mg		2.34951842		4.61344557		5.24805427		-0.00051144		-0.00011786		 0.00021614	
Mg		9.26919337		2.46842907		1.91671170		 0.00015815		 0.00012914		-0.00005142	
Mg		-1.24598415		11.44569117		7.71845800		-0.00015818		-0.00012913		 0.00005141	
Mg		-0.03911313		9.42535472		2.90494159		-0.00030403		 0.00013384		-0.00015622	
Mg		8.06232235		4.48876552		6.73022811		 0.00030402		-0.00013383		 0.00015622	
O		3.58364825		1.03565672		6.45996730		-0.00029364		 0.00011515		 0.00041708	
O		4.43956097		12.87846352		3.17520240		 0.00029364		-0.00011519		-0.00041708	
O		3.23338134		7.99260778		7.98941974		 0.00029182		 0.00010495		-0.00042727	
O		4.78982788		5.92151246		1.64574996		-0.00029182		-0.00010490		 0.00042727	
O		5.64835372		1.20555282		4.43102492		-0.00043943		-0.00019816		 0.00001265	
O		2.37485550		12.70856742		5.20414478		 0.00043943		 0.00019816		-0.00001265	
O		3.58083078		8.16278870		0.39007355		 0.00043753		-0.00021395		-0.00002256	
O		4.44237843		5.75133154		9.24509614		-0.00043753		 0.00021395		 0.00002257	
O		6.78992325		3.37326787		5.51618160		-0.00004143		-0.00003946		 0.00004542	
O		1.23328597		10.54085237		4.11898810		 0.00004142		 0.00003946		-0.00004542	
O		0.02704599		10.33021788		8.93284439		 0.00005767		-0.00004645		-0.00004150	
O		7.99616323		3.58390236		0.70232531		-0.00005768		 0.00004645		 0.00004151	
O		6.42690310		1.19750382		7.04085990		-0.00040949		 0.00010961		-0.00001936	
O		1.59630612		12.71661642		2.59430980		 0.00040950		-0.00010962		 0.00001937	
O		0.39029273		8.15439559		7.40861184		 0.00039399		 0.00009374		-0.00000384	
O		7.63291649		5.75972465		2.22655786		-0.00039399		-0.00009375		 0.00000385	
O		1.21717950		3.38535513		4.09046827		 0.00009890		 0.00016202		 0.00014885	
O		6.80602866		10.52876511		5.54470143		-0.00009890		-0.00016202		-0.00014885	
O		8.01184406		10.34239937		0.73084727		-0.00007525		 0.00016488		-0.00015728	
O		0.01136516		3.57172087		8.90432349		 0.00007525		-0.00016487		 0.00015727	
O		2.71210129		1.20160667		3.69737396		-0.00011104		 0.00008402		-0.00007043	
O		5.31110793		12.71251251		5.93779574		 0.00011104		-0.00008402		 0.00007042	
O		6.51711285		8.15859691		1.12358264		 0.00011302		 0.00008919		 0.00007610	
O		1.50609637		5.75552333		8.51158812		-0.00011302		-0.00008919		-0.00007610	
O		0.78877209		1.18730017		5.61667866		-0.00004992		 0.00024983		 0.00009090	
O		7.23443712		12.72682008		4.01849210		 0.00004992		-0.00024984		-0.00009089	
O		6.02835702		8.14436664		8.83266073		 0.00005580		 0.00023818		-0.00008419	
O		1.99485220		5.76975254		0.80250896		-0.00005580		-0.00023819		 0.00008419	
O		0.05966338		1.21171609		3.04068610		-0.00008649		-0.00008670		 0.00001807	
O		7.96354584		12.70240309		6.59448360		 0.00008648		 0.00008669		-0.00001807	
O		9.16969582		8.16896468		1.78043250		 0.00007298		-0.00009716		 0.00000049	
O		-1.14648660		5.74515556		7.85473720		-0.00007298		 0.00009715		-0.00000049	
O		3.93973644		3.37040700		5.06687771		-0.00005726		-0.00030414		-0.00060252	
O		4.08347277		10.54371325		4.56829199		 0.00005726		 0.00030414		 0.00060252	
O		2.87779713		10.32763652		9.38217262		 0.00005130		-0.00031756		 0.00061565	
O		5.14541208		3.58648372		0.25299813		-0.00005131		 0.00031756		-0.00061564	
O		4.61066304		3.34211586		7.52113051		 0.00028999		 0.00019237		 0.00009789	
O		3.41254618		10.57200438		2.11403919		-0.00028999		-0.00019238		-0.00009790	
O		2.20640466		10.29916222		6.92832535		-0.00028436		 0.00019297		-0.00009639	
O		5.81680455		3.61495802		2.70684435		 0.00028436		-0.00019296		 0.00009638	
O		4.80420321		1.18552032		1.65957472		-0.00001151		-0.00005103		 0.00000027	
O		3.21900601		12.72859886		7.97559498		 0.00001152		 0.00005103		-0.00000027	
O		4.42480341		8.14250845		3.16164658		 0.00002088		-0.00005389		-0.00000805	
O		3.59840580		5.77161180		6.47352312		-0.00002089		 0.00005389		 0.00000806	
O		4.59476516		1.04196081		9.31844663		 0.00010434		-0.00031355		 0.00054291	
O		3.42844300		12.87215943		0.31672307		-0.00010433		 0.00031355		-0.00054291	
O		2.22219667		7.99909293		5.13097535		-0.00009922		-0.00031597		-0.00055158	
O		5.80101149		5.91502731		4.50419435		 0.00009923		 0.00031598		 0.00055156	
O		7.74135349		1.05863056		2.13681398		-0.00005035		-0.00037030		-0.00026399	
O		0.28185573		12.85548862		7.49835572		 0.00005036		 0.00037030		 0.00026399	
O		1.48788077		8.01549798		2.68431626		 0.00004762		-0.00037016		 0.00026903	
O		6.53532845		5.89862120		6.95085344		-0.00004762		 0.00037015		-0.00026903	
O		-1.09077890		1.02585011		7.90230379		 0.00059372		-0.00020598		 0.00002937	
O		9.11398812		12.88827013		1.73286591		-0.00059372		 0.00020597		-0.00002938	
O		7.90785614		7.98314740		6.54678996		-0.00059762		-0.00020447		-0.00003620	
O		0.11535308		5.93097284		3.08837974		 0.00059762		 0.00020447		 0.00003620	
O		9.52361559		1.11468237		0.26862390		-0.00067491		-0.00060430		 0.00016707	
O		-1.50040638		12.79943787		9.36654685		 0.00067491		 0.00060429		-0.00016708	
O		-0.29452850		8.07153814		4.55239410		 0.00068712		-0.00059330		-0.00016639	
O		8.31773772		5.84258104		5.08277560		-0.00068712		 0.00059330		 0.00016640	
O		1.37887520		1.03414263		8.50669328		-0.00036712		-0.00023400		 0.00015464	
O		6.64433402		12.87997655		1.12847642		 0.00036712		 0.00023400		-0.00015463	
O		5.43822216		7.99115299		5.94272234		 0.00035239		-0.00023123		-0.00015713	
O		2.58498706		5.92296725		3.69244736		-0.00035240		 0.00023124		 0.00015713	
O		1.99732238		1.03601353		0.71343424		 0.00046222		-0.00024098		-0.00052926	
O		6.02588684		12.87810671		8.92173546		-0.00046221		 0.00024098		 0.00052926	
O		7.23172130		7.99298683		4.10740483		-0.00045082		-0.00022716		 0.00054534	
O		0.79148792		5.92113341		5.52776487		 0.00045081		 0.00022715		-0.00054534	
O		2.15351443		3.34782173		6.88658534		-0.00041917		-0.00000975		 0.00009806	
O		5.86969479		10.56629851		2.74858542		 0.00041918		 0.00000975		-0.00009806	
O		4.66388468		10.30439904		7.56234218		 0.00041698		-0.00000154		-0.00008361	
O		3.35932454		3.60972120		2.07282752		-0.00041696		 0.00000155		 0.00008361	
O		8.28556820		1.21916052		5.08042082		-0.00016505		-0.00004636		 0.00003412	
O		-0.26235899		12.69495973		4.55474888		 0.00016505		 0.00004635		-0.00003411	
O		-1.46852273		8.17603323		9.36890057		 0.00016866		-0.00005263		-0.00001945	
O		9.49173195		5.73808595		0.26626913		-0.00016865		 0.00005263		 0.00001945	
O		-0.84039495		3.42027859		6.13033217		 0.00019295		 0.00064641		 0.00016873	
O		8.86360416		10.49384165		3.50483753		-0.00019297		-0.00064640		-0.00016874	
O		7.65705925		10.37774317		8.31974097		-0.00017541		 0.00062510		-0.00019923	
O		0.36614997		3.53637707		1.31542873		 0.00017541		-0.00062511		 0.00019922	
O		8.73925128		3.42821430		3.52005567		 0.00016506		-0.00067263		-0.00006563	
O		-0.71604207		10.48590594		6.11511509		-0.00016504		 0.00067265		 0.00006562	
O		0.49072837		10.38488055		1.30138586		-0.00018232		-0.00068408		 0.00006459	
O		7.53248085		3.52923970		8.33378384		 0.00018230		 0.00068411		-0.00006456	
H		-1.25892057		2.62149449		5.74532497		-0.00056535		-0.00025463		 0.00072689	
H		9.28212979		11.29262576		3.88984473		 0.00056536		 0.00025462		-0.00072687	
H		8.07580405		9.57893683		8.70445171		 0.00056676		-0.00025893		-0.00071810	
H		-0.05259483		4.33518235		0.93071799		-0.00056676		 0.00025895		 0.00071810	
H		8.59460862		2.63244142		4.07617447		-0.00006915		 0.00000422		-0.00012005	
H		-0.57139940		11.28167882		5.55899523		 0.00006914		-0.00000424		 0.00012005	
H		0.63487128		9.58917331		0.74504789		 0.00008318		-0.00000412		 0.00012821	
H		7.38833794		4.32494693		8.89012181		-0.00008318		 0.00000409		-0.00012823	
