# total energy = -117598.777563 eV	

CRYSTAL	
PRIMVEC	
		10.96914648		0.00005294		-0.00384344	
		0.00006353		14.56227946		0.00030705	
		-2.54581041		0.00020117		10.12076183	
PRIMCOORD
   156 1	
Si		8.48697843		0.02211304		0.74982625		 0.00004793		-0.00011144		 0.00017550	
Si		-0.06357564		14.54041101		9.36740342		-0.00004822		 0.00011245		-0.00017608	
Si		1.20924697		7.30345288		4.30681816		-0.00003945		-0.00012410		-0.00017894	
Si		7.21415581		7.25907116		5.81041152		 0.00003981		 0.00012476		 0.00017929	
Si		3.74730273		2.76668349		6.81268427		 0.00008940		 0.00026025		 0.00017640	
Si		4.67610006		11.79584056		3.30454540		-0.00008910		-0.00026018		-0.00017605	
Si		3.40288357		10.04785499		8.36511902		-0.00009278		 0.00027483		-0.00017131	
Si		5.02051816		4.51466906		1.75211066		 0.00009251		-0.00027504		 0.00017106	
Si		1.26126793		1.83001928		4.31905259		 0.00020616		-0.00003956		 0.00004673	
Si		7.16213485		12.73250477		5.79817709		-0.00020630		 0.00003971		-0.00004632	
Si		8.43510888		9.11095889		0.73793699		-0.00020672		-0.00001259		-0.00006287	
Si		-0.01170715		5.45156515		9.37929269		 0.00020682		 0.00001250		 0.00006248	
Si		7.10368274		1.78689965		5.79266392		 0.00006966		 0.00012355		-0.00008526	
Si		1.31971898		12.77562440		4.32456576		-0.00006731		-0.00012374		 0.00008586	
Si		0.04682649		9.06811350		9.38518809		-0.00004569		 0.00013316		 0.00006853	
Si		8.37657735		5.49441161		0.73204159		 0.00004151		-0.00013418		-0.00006796	
Mg		4.21166910		0.00012282		5.05846343		 0.00000009		 0.00000008		 0.00000008	
Mg		5.48460501		7.28116303		-0.00176820		-0.00000010		 0.00000006		-0.00000005	
Mg		4.55287056		2.57323015		3.63199835		-0.00057755		-0.00016111		 0.00019945	
Mg		3.87053116		11.98929390		6.48523133		 0.00057762		 0.00016108		-0.00019935	
Mg		5.14453222		9.85368166		1.42615379		 0.00036743		-0.00008600		-0.00012113	
Mg		3.27887056		4.70884239		8.69107589		-0.00036752		 0.00008587		 0.00012102	
Mg		5.48457324		0.00002435		-0.00191960		 0.00000004		 0.00000009		-0.00000005	
Mg		4.21170086		7.28126255		5.05861484		-0.00000003		 0.00000004		 0.00000004	
Mg		6.41258812		0.03079308		2.95609433		 0.00033788		-0.00043271		 0.00029136	
Mg		2.01081466		14.53173097		7.16113534		-0.00033782		 0.00043291		-0.00029123	
Mg		3.28363093		7.31165541		2.10082325		-0.00032097		-0.00047984		-0.00030623	
Mg		5.13977186		7.25086864		8.01640643		 0.00032080		 0.00048000		 0.00030604	
Mg		0.43875400		0.01309100		1.53583806		-0.00025183		-0.00010246		 0.00007422	
Mg		7.98464772		14.54943304		8.58139268		 0.00025181		 0.00010319		-0.00007457	
Mg		9.25808339		7.29435461		3.52105094		-0.00004599		-0.00002097		 0.00008387	
Mg		-0.83468060		7.26816943		6.59617874		 0.00004595		 0.00002139		-0.00008351	
Mg		-0.90936200		0.00353322		6.43557467		 0.00019905		 0.00004946		 0.00012641	
Mg		9.33276478		14.55899083		3.68165501		-0.00019973		-0.00004851		-0.00012604	
Mg		8.06127414		7.28434154		8.74141865		-0.00056019		 0.00000785		-0.00000900	
Mg		0.36212759		7.27818250		1.37581103		 0.00056127		-0.00000651		 0.00000861	
Mg		3.30618019		0.04031381		2.17697638		-0.00012506		-0.00064085		-0.00038737	
Mg		5.11722153		14.52221024		7.94025330		 0.00012532		 0.00064117		 0.00038726	
Mg		6.39002721		7.32162613		2.88059343		 0.00015676		-0.00065132		 0.00034067	
Mg		2.03337557		7.24089792		7.23663625		-0.00015695		 0.00065150		-0.00034056	
Mg		6.81443659		2.47076478		1.24593757		 0.00053938		-0.00014634		 0.00000035	
Mg		1.60896619		12.09175927		8.87129211		-0.00053955		 0.00014607		-0.00000042	
Mg		2.88213398		9.75212051		3.81005780		-0.00071375		-0.00015011		 0.00011518	
Mg		5.54126880		4.81040354		6.30717188		 0.00071390		 0.00014974		-0.00011516	
Mg		-1.68696481		2.51957440		9.80395830		 0.00035232		-0.00001747		 0.00014127	
Mg		10.11036760		12.04294965		0.31327138		-0.00035210		 0.00001685		-0.00014191	
Mg		8.83694146		9.80098307		5.37153893		-0.00033113		-0.00003668		-0.00003354	
Mg		-0.41353974		4.76154098		4.74569074		 0.00033099		 0.00003620		 0.00003410	
Mg		0.50570510		2.60017449		7.59342749		 0.00060087		 0.00003248		 0.00004314	
Mg		7.91769768		11.96234956		2.52380219		-0.00060134		-0.00003246		-0.00004313	
Mg		6.64476072		9.88145928		7.58674540		-0.00049102		 0.00006022		-0.00013895	
Mg		1.77864101		4.68106477		2.53048428		 0.00049143		-0.00006025		 0.00013898	
Mg		6.21322032		2.55868118		9.04244077		-0.00025894		 0.00000793		 0.00015165	
Mg		2.21018246		12.00384393		1.07478891		 0.00025898		-0.00000863		-0.00015217	
Mg		0.93665045		9.83959539		6.13706613		 0.00039337		-0.00001632		-0.00030356	
Mg		7.48675233		4.72292866		3.98016354		-0.00039342		 0.00001581		 0.00030404	
Mg		3.74243542		2.43714788		0.45018375		-0.00029838		 0.00037385		-0.00043198	
Mg		4.68096630		12.12537617		9.66704593		 0.00029830		-0.00037384		 0.00043187	
Mg		5.95323199		9.71823044		4.60874026		 0.00045497		 0.00044886		 0.00026375	
Mg		2.47017079		4.84429361		5.50848942		-0.00045491		-0.00044891		-0.00026366	
Mg		9.74445586		2.59767255		2.01273850		-0.00026822		-0.00039436		-0.00008180	
Mg		-1.32105307		11.96485256		8.10449117		 0.00026808		 0.00039372		 0.00008192	
Mg		-0.04634156		9.87951003		3.04533952		-0.00014246		-0.00039045		 0.00032243	
Mg		8.46974434		4.68301402		7.07189015		 0.00014266		 0.00038971		-0.00032261	
O		3.76236310		1.12110929		6.77319104		-0.00018955		 0.00030458		 0.00044076	
O		4.66103969		13.44141476		3.34403864		 0.00018943		-0.00030470		-0.00044084	
O		3.38796508		8.40229243		8.40418133		 0.00020066		 0.00028468		-0.00042798	
O		5.03543665		6.16023162		1.71304835		-0.00020055		-0.00028458		 0.00042804	
O		5.93457699		1.26863824		4.66566558		 0.00001397		-0.00009160		 0.00014226	
O		2.48882579		13.29388581		5.45156515		-0.00001482		 0.00009133		-0.00014293	
O		3.76166323		8.54963292		0.39146694		-0.00001177		-0.00009691		-0.00017007	
O		4.66173955		6.01289113		9.72576168		 0.00001296		 0.00009669		 0.00017075	
O		7.11823065		3.47294648		5.78734345		-0.00019996		 0.00010767		 0.00014670	
O		1.30517213		11.08957757		4.32988729		 0.00019939		-0.00010704		-0.00014726	
O		0.03213246		10.75419527		9.39017503		 0.00020632		 0.00009110		-0.00015511	
O		8.39126926		3.80832878		0.72705464		-0.00020557		-0.00008999		 0.00015530	
O		6.73570211		1.24526311		7.35036619		 0.00020279		 0.00033014		-0.00017638	
O		1.68770068		13.31726094		2.76686349		-0.00020346		-0.00033084		 0.00017622	
O		0.41476795		8.52644837		7.82739899		-0.00021433		 0.00033294		 0.00015783	
O		8.00863484		6.03607673		2.28983069		 0.00021517		-0.00033339		-0.00015839	
O		1.28493211		3.52127858		4.29180437		 0.00004583		-0.00001776		-0.00001600	
O		7.13847067		11.04124547		5.82542530		-0.00004588		 0.00001789		 0.00001585	
O		8.41141505		10.80223937		0.76473310		-0.00003606		-0.00001499		 0.00000468	
O		0.01198773		3.76028573		9.35249658		 0.00003619		 0.00001527		-0.00000448	
O		2.81970290		1.29270159		3.88391545		 0.00023309		 0.00008792		-0.00000791	
O		5.60369989		13.26982246		6.23331423		-0.00023312		-0.00008806		 0.00000781	
O		6.87671097		8.57366026		1.17315248		-0.00020148		 0.00008728		-0.00000095	
O		1.54669076		5.98886378		8.94407720		 0.00020158		-0.00008732		 0.00000100	
O		0.84400969		1.28329944		5.86636910		-0.00012878		 0.00020356		 0.00001086	
O		7.57939310		13.27922461		4.25086164		 0.00012897		-0.00020377		-0.00001119	
O		6.30637460		8.56463293		9.31125103		 0.00014393		 0.00019064		-0.00000517	
O		2.11702818		5.99789111		0.80597865		-0.00014418		-0.00019092		 0.00000554	
O		0.09853616		1.29444755		3.22136184		 0.00026646		-0.00012399		 0.00003121	
O		8.32486662		13.26807756		6.89586889		-0.00026634		 0.00012359		-0.00003129	
O		9.59790206		8.57548563		1.83548162		-0.00026798		-0.00011046		-0.00002055	
O		-1.17450033		5.98703841		8.28174805		 0.00026773		 0.00011009		 0.00002062	
O		4.11984997		3.52386417		5.37871019		 0.00013346		-0.00024283		 0.00005597	
O		4.30355176		11.03865988		4.73851949		-0.00013354		 0.00024291		-0.00005616	
O		3.03073020		10.80484402		9.79919476		-0.00013033		-0.00024370		-0.00006932	
O		5.39267258		3.75768002		0.31803492		 0.00013043		 0.00024379		 0.00006951	
O		4.80318676		3.46705214		7.87867561		 0.00016776		 0.00022945		 0.00000522	
O		3.62021497		11.09547191		2.23855407		-0.00016811		-0.00022935		-0.00000528	
O		2.34707153		10.74840681		7.29912133		-0.00018977		 0.00020365		 0.00002055	
O		6.07633125		3.81411830		2.81810835		 0.00018998		-0.00020355		-0.00002056	
O		5.05106030		1.20682867		1.71823223		-0.00013889		-0.00030142		 0.00054519	
O		3.37234248		13.35569537		8.39899850		 0.00013887		 0.00030136		-0.00054513	
O		4.64524768		8.48816640		3.33863029		 0.00014837		-0.00031221		-0.00055123	
O		3.77815404		6.07435871		6.77859939		-0.00014832		 0.00031221		 0.00055120	
O		4.86839613		1.08090559		9.82510994		 0.00013667		 0.00007977		 0.00002201	
O		3.55500559		13.48161845		0.29211973		-0.00013675		-0.00007989		-0.00002181	
O		2.28188334		8.36191721		5.35252818		-0.00011165		 0.00007965		-0.00003470	
O		6.14151945		6.20060684		4.76470150		 0.00011167		-0.00007964		 0.00003459	
O		8.14581931		1.08992445		2.20285027		 0.00004145		-0.00011137		-0.00017430	
O		0.27758347		13.47259960		7.91437941		-0.00004139		 0.00011113		 0.00017412	
O		1.55053314		8.37131724		2.85401331		-0.00004441		-0.00010225		 0.00015662	
O		6.87286964		6.19120681		7.26321637		 0.00004430		 0.00010207		-0.00015625	
O		-1.15215224		1.01521764		8.33702694		-0.00005561		-0.00011398		-0.00004872	
O		9.57555503		13.54730746		1.78020274		 0.00005619		 0.00011316		 0.00004907	
O		8.30257783		8.29610009		6.84040048		 0.00006638		-0.00010994		 0.00006919	
O		0.12082496		6.26642396		3.27682920		-0.00006684		 0.00010941		-0.00006957	
O		9.99093284		1.15584745		0.28740702		 0.00001962		 0.00015003		-0.00009366	
O		-1.56753112		13.40667659		9.82982266		-0.00001987		-0.00015061		 0.00009432	
O		-0.29481015		8.43718836		4.76938351		-0.00001428		 0.00014290		 0.00010142	
O		8.71821187		6.12533675		5.34784617		 0.00001438		-0.00014315		-0.00010187	
O		1.37817533		1.05771258		8.94279287		 0.00018411		 0.00020979		-0.00012518	
O		7.04522745		13.50481147		1.17443681		-0.00018397		-0.00020996		 0.00012527	
O		5.77211896		8.33859185		6.23497125		-0.00018913		 0.00020690		 0.00014359	
O		2.65128276		6.22393220		3.88225843		 0.00018902		-0.00020698		-0.00014365	
O		2.11353202		1.04549403		0.70630216		 0.00034386		-0.00002182		-0.00027626	
O		6.30987076		13.51703108		9.41092751		-0.00034378		 0.00002150		 0.00027655	
O		7.58272196		8.32676505		4.35051801		-0.00034460		-0.00000186		 0.00030607	
O		0.84068082		6.23575900		5.76671167		 0.00034456		 0.00000176		-0.00030632	
O		2.31349381		3.47832730		7.23705342		-0.00001407		 0.00001037		-0.00001167	
O		6.10990791		11.08419675		2.88017626		 0.00001405		-0.00001033		 0.00001162	
O		4.83665225		10.75957080		7.94031365		 0.00001015		-0.00000856		 0.00000409	
O		3.58674948		3.80295325		2.17691603		-0.00001005		 0.00000864		-0.00000405	
O		8.62794070		1.24663214		5.34262099		 0.00018431		-0.00024940		 0.00018020	
O		-0.20453792		13.31589297		4.77460763		-0.00018503		 0.00024835		-0.00017972	
O		-1.47754477		8.52787352		9.83492396		-0.00018522		-0.00024902		-0.00016783	
O		9.90094649		6.03465159		0.28230572		 0.00018688		 0.00024751		 0.00016661	
O		-0.88197296		3.60990437		6.43729204		-0.00008496		-0.00004277		 0.00017293	
O		9.30537469		10.95261968		3.67993764		 0.00008698		 0.00004605		-0.00017183	
O		8.03206185		10.89163492		8.74156794		 0.00016957		-0.00012743		-0.00018726	
O		0.39134200		3.67088596		1.37566280		-0.00017372		 0.00013499		 0.00018385	
O		9.18055805		3.62005932		3.68899144		-0.00009497		 0.00028335		-0.00029630	
O		-0.75715739		10.94245731		6.42824354		 0.00010014		-0.00025761		 0.00027721	
O		0.51653874		10.90105929		1.36835496		 0.00012591		 0.00010098		 0.00014486	
O		7.90686616		3.66144993		8.74886413		-0.00013471		-0.00005679		-0.00011223	
H		-1.30471367		2.81409443		6.04966537		-0.00020926		-0.00014012		 0.00014790	
H		9.72811645		11.74843067		4.06756536		 0.00020758		 0.00013722		-0.00014926	
H		8.45538066		10.09572757		9.12851697		 0.00020521		-0.00005801		-0.00013276	
H		-0.03197999		4.46679860		0.98871164		-0.00020133		 0.00005102		 0.00013624	
H		9.01934305		2.83956916		4.26260479		-0.00007437		-0.00062860		-0.00000400	
H		-0.59593815		11.72296230		5.85461854		 0.00006943		 0.00060479		 0.00002185	
H		0.67690458		10.12037537		0.79450761		 0.00005884		-0.00043492		 0.00016441	
H		7.74649502		4.44216244		9.32273265		-0.00005044		 0.00039399		-0.00019503	
