# total energy = -117600.897998 eV	

CRYSTAL	
PRIMVEC	
		10.87792028		0.00007412		-0.00145056	
		0.00009529		14.45060783		0.00018000	
		-2.52245328		0.00010588		10.03732840	
PRIMCOORD
   156 1	
Si		8.41368935		0.01966086		0.74426967		 0.00011870		-0.00019361		 0.00024248	
Si		-0.05812177		14.43113121		9.29179558		-0.00011873		 0.00019373		-0.00024250	
Si		1.20296617		7.24504630		4.27304773		-0.00011010		-0.00020502		-0.00025508	
Si		7.15260142		7.20574576		5.76301752		 0.00011012		 0.00020511		 0.00025508	
Si		3.71658906		2.74426764		6.75705916		 0.00009845		 0.00005868		 0.00010839	
Si		4.63897853		11.70652443		3.27900609		-0.00009840		-0.00005871		-0.00010840	
Si		3.37747978		9.96962132		8.29780370		-0.00010703		 0.00006580		-0.00010474	
Si		4.97808781		4.48117075		1.73826049		 0.00010699		-0.00006584		 0.00010475	
Si		1.25017912		1.81416375		4.28419372		 0.00004146		-0.00022723		 0.00004978	
Si		7.10538847		12.63662938		5.75187153		-0.00004151		 0.00022725		-0.00004981	
Si		8.36658864		9.03926543		0.73338521		-0.00004134		-0.00021341		-0.00006144	
Si		-0.01102105		5.41152663		9.30268004		 0.00004138		 0.00021342		 0.00006146	
Si		7.04898725		1.77749221		5.74720222		 0.00005407		 0.00004456		-0.00011877	
Si		1.30658034		12.67329985		4.28886303		-0.00005372		-0.00004464		 0.00011875	
Si		0.04532299		9.00280989		9.30776546		-0.00004755		 0.00004708		 0.00010727	
Si		8.31024460		5.44798217		0.72829979		 0.00004708		-0.00004721		-0.00010716	
Mg		4.17773562		0.00009106		5.01794104		 0.00000001		 0.00000001		 0.00000001	
Mg		5.43900779		7.22534097		-0.00063210		0.00000000		 0.00000001		0.00000000	
Mg		4.51699101		2.54303423		3.59192595		-0.00037851		-0.00026153		-0.00004869	
Mg		3.83857658		11.90775783		6.44413930		 0.00037852		 0.00026153		 0.00004869	
Mg		5.10020238		9.76808615		1.42673084		 0.00041578		-0.00021255		 0.00001719	
Mg		3.25536520		4.68270591		8.60933441		-0.00041578		 0.00021254		-0.00001718	
Mg		5.43896014		0.00003600		-0.00072422		 0.00000001		 0.00000001		0.00000000	
Mg		4.17778326		7.22539603		5.01803209		0.00000000		 0.00000001		0.00000000	
Mg		6.36011399		0.03238657		2.93416447		 0.00017827		-0.00029552		 0.00031130	
Mg		1.99545359		14.41840655		7.10190078		-0.00017826		 0.00029555		-0.00031130	
Mg		3.25662306		7.25747555		2.08336787		-0.00016803		-0.00033053		-0.00030049	
Mg		5.09894453		7.19331651		7.95269738		 0.00016798		 0.00033054		 0.00030048	
Mg		0.43465856		0.01021530		1.52472701		-0.00028799		-0.00013312		 0.00000059	
Mg		7.92090797		14.44057676		8.51133824		 0.00028798		 0.00013321		-0.00000061	
Mg		9.18254436		7.23551392		3.49242946		 0.00001696		-0.00007046		 0.00015001	
Mg		-0.82697677		7.21527920		6.54363579		-0.00001697		 0.00007052		-0.00014999	
Mg		-0.89723874		0.00407214		6.38042284		 0.00020425		 0.00006675		-0.00005710	
Mg		9.25280633		14.44671992		3.65564241		-0.00020434		-0.00006663		 0.00005713	
Mg		7.99253261		7.22917383		8.67367557		-0.00052629		 0.00003011		 0.00016777	
Mg		0.36303498		7.22161823		1.36238968		 0.00052638		-0.00002996		-0.00016781	
Mg		3.28020571		0.03978864		2.16012558		-0.00007795		-0.00045841		-0.00029034	
Mg		5.07536188		14.41100342		7.87593967		 0.00007798		 0.00045844		 0.00029032	
Mg		6.33637570		7.26532867		2.85790228		 0.00012652		-0.00046449		 0.00023726	
Mg		2.01919189		7.18546339		7.17816297		-0.00012652		 0.00046453		-0.00023725	
Mg		6.75506650		2.45112298		1.23833644		 0.00036355		-0.00006720		 0.00003278	
Mg		1.60050109		11.99966908		8.79772881		-0.00036355		 0.00006717		-0.00003279	
Mg		2.86188019		9.67659207		3.77851297		-0.00053691		-0.00006883		 0.00009209	
Mg		5.49368739		4.77420105		6.25755122		 0.00053692		 0.00006880		-0.00009211	
Mg		-1.67595647		2.50154198		9.72760505		 0.00018805		 0.00004034		 0.00009673	
Mg		10.03152406		11.94925009		0.30846019		-0.00018801		-0.00004040		-0.00009675	
Mg		8.77028259		9.72687554		5.32448692		-0.00035617		 0.00001722		 0.00013977	
Mg		-0.41471501		4.72391652		4.71157727		 0.00035615		-0.00001729		-0.00013976	
Mg		0.49323879		2.57253875		7.53730897		 0.00056034		 0.00006004		-0.00002968	
Mg		7.86232774		11.87825331		2.49875628		-0.00056038		-0.00006006		 0.00002969	
Mg		6.60087981		9.79807772		7.51969372		-0.00023670		 0.00004778		-0.00023714	
Mg		1.75468778		4.65271434		2.51637153		 0.00023674		-0.00004781		 0.00023713	
Mg		6.16554785		2.53983348		8.97519956		-0.00019918		 0.00010202		 0.00000998	
Mg		2.19001973		11.91095858		1.06086569		 0.00019919		-0.00010208		-0.00001001	
Mg		0.92825840		9.76493199		6.08144843		 0.00033931		 0.00008297		-0.00018738	
Mg		7.42730919		4.68586008		3.95461682		-0.00033929		-0.00008302		 0.00018741	
Mg		3.70930557		2.42284773		0.44864107		-0.00022989		 0.00032705		-0.00032269	
Mg		4.64626202		12.02794433		9.58742417		 0.00022989		-0.00032705		 0.00032271	
Mg		5.90679514		9.64805953		4.57076640		 0.00042521		 0.00040434		 0.00014296	
Mg		2.44877245		4.80273253		5.46529885		-0.00042518		-0.00040436		-0.00014298	
Mg		9.66189169		2.57575221		1.99753519		-0.00022294		-0.00048429		-0.00008447	
Mg		-1.30632411		11.87504091		8.03853005		 0.00022291		 0.00048422		 0.00008450	
Mg		-0.04340974		9.80149659		3.02095642		-0.00015932		-0.00048396		 0.00033306	
Mg		8.39897733		4.64929654		7.01510883		 0.00015932		 0.00048388		-0.00033310	
O		3.73215765		1.10495835		6.72074762		-0.00023228		 0.00030949		 0.00030130	
O		4.62340994		13.34583371		3.31531763		 0.00023226		-0.00030948		-0.00030129	
O		3.36202659		8.33030038		8.33377113		 0.00024032		 0.00030051		-0.00029576	
O		4.99354099		6.12049168		1.70229412		-0.00024032		-0.00030049		 0.00029576	
O		5.88694688		1.25759390		4.62579224		-0.00004785		-0.00001445		 0.00024780	
O		2.46862071		13.19319817		5.41027301		 0.00004773		 0.00001442		-0.00024787	
O		3.72976370		8.48287875		0.39189681		 0.00004944		-0.00001519		-0.00026067	
O		4.62580388		5.96791437		9.64416844		-0.00004930		 0.00001517		 0.00026074	
O		7.06329693		3.45731224		5.74149423		-0.00032603		 0.00000595		 0.00025438	
O		1.29226960		10.99347983		4.29457102		 0.00032597		-0.00000585		-0.00025439	
O		0.03090425		10.68265321		9.31300334		 0.00032952		 0.00000020		-0.00025834	
O		8.32466333		3.76813885		0.72306085		-0.00032945		-0.00000007		 0.00025834	
O		6.68401467		1.23704577		7.29898686		 0.00017642		 0.00051358		-0.00013500	
O		1.67155292		13.21374736		2.73707838		-0.00017649		-0.00051365		 0.00013504	
O		0.41029134		8.46229886		7.75593952		-0.00017951		 0.00051248		 0.00011876	
O		7.94527519		5.98849320		2.28012573		 0.00017961		-0.00051253		-0.00011884	
O		1.27339225		3.49802310		4.25855911		-0.00003460		-0.00016763		-0.00001641	
O		7.08217534		10.95277003		5.77750614		 0.00003460		 0.00016766		 0.00001644	
O		8.34336809		10.72315761		0.75861006		 0.00004088		-0.00016008		-0.00000242	
O		0.01219949		3.72763446		9.27745519		-0.00004088		 0.00016012		 0.00000239	
O		2.80194153		1.27585608		3.85231557		 0.00011716		 0.00014519		 0.00002222	
O		5.55362606		13.17493599		6.18374968		-0.00011716		-0.00014520		-0.00002222	
O		6.81488023		8.50100117		1.16528348		-0.00010181		 0.00014622		-0.00002113	
O		1.54068736		5.94979195		8.87078177		 0.00010181		-0.00014624		 0.00002112	
O		0.83364721		1.26516114		5.82477097		-0.00017105		 0.00015889		-0.00000784	
O		7.52192037		13.18563092		4.21129428		 0.00017108		-0.00015893		 0.00000784	
O		6.26054444		8.49054341		9.23001672		 0.00018392		 0.00014915		 0.00001123	
O		2.09502314		5.96024866		0.80604853		-0.00018395		-0.00014920		-0.00001123	
O		0.09130456		1.27969635		3.19041524		 0.00014038		-0.00017842		-0.00002982	
O		8.26426303		13.17109678		6.84565001		-0.00014036		 0.00017835		 0.00002985	
O		9.52561143		8.50503414		1.82702817		-0.00015119		-0.00017024		 0.00004061	
O		-1.17004384		5.94575792		8.20903708		 0.00015116		 0.00017017		-0.00004066	
O		4.08970064		3.49601349		5.32501844		 0.00002952		-0.00018279		 0.00002506	
O		4.26586695		10.95477857		4.71104681		-0.00002953		 0.00018280		-0.00002505	
O		3.00480866		10.72120412		9.72995665		-0.00004628		-0.00018810		-0.00002647	
O		5.35075893		3.72958794		0.30610860		 0.00004629		 0.00018811		 0.00002646	
O		4.77125018		3.44518686		7.81773320		 0.00011260		 0.00012234		 0.00005331	
O		3.58431741		11.00560520		2.21833205		-0.00011263		-0.00012232		-0.00005331	
O		2.32293831		10.67077242		7.23717095		-0.00013322		 0.00010407		-0.00004022	
O		6.03262928		3.78001965		2.79889430		 0.00013324		-0.00010405		 0.00004020	
O		5.00912653		1.20611292		1.71248189		-0.00018701		-0.00025111		 0.00037588	
O		3.34644106		13.24467914		8.32358336		 0.00018701		 0.00025110		-0.00037588	
O		4.60753747		8.43156295		3.30508327		 0.00019786		-0.00025047		-0.00038396	
O		3.74803012		6.01922911		6.73098198		-0.00019786		 0.00025046		 0.00038396	
O		4.82029485		1.07328753		9.73950385		 0.00009450		 0.00008709		-0.00007902	
O		3.53527274		13.37750454		0.29656140		-0.00009450		-0.00008710		 0.00007903	
O		2.27379093		8.29852050		5.31530819		-0.00007594		 0.00007925		 0.00006397	
O		6.08177666		6.15227156		4.72075706		 0.00007594		-0.00007924		-0.00006397	
O		8.07656427		1.08443246		2.19202404		-0.00000213		-0.00017970		-0.00010020	
O		0.27900332		13.36635961		7.84404121		 0.00000213		 0.00017968		 0.00010016	
O		1.54025961		8.30986872		2.82544265		 0.00000252		-0.00016980		 0.00008867	
O		6.81530798		6.14092440		7.21062260		-0.00000253		 0.00016977		-0.00008862	
O		-1.13917453		1.01883556		8.26283471		-0.00002595		-0.00002095		-0.00003383	
O		9.49474212		13.43195650		1.77322948		 0.00002599		 0.00002086		 0.00003386	
O		8.23342442		8.24401136		6.79167239		 0.00004171		-0.00002672		 0.00004427	
O		0.12214316		6.20678070		3.24439286		-0.00004175		 0.00002666		-0.00004430	
O		9.91068110		1.14855232		0.28393203		 0.00008306		 0.00015255		-0.00006448	
O		-1.55511351		13.30223974		9.75213321		-0.00008310		-0.00015261		 0.00006451	
O		-0.29414098		8.37401294		4.73341925		-0.00008377		 0.00015721		 0.00007225	
O		8.64970751		6.07677912		5.30264600		 0.00008380		-0.00015726		-0.00007226	
O		1.38017752		1.05360655		8.86962344		 0.00019684		 0.00012488		-0.00000555	
O		6.97539007		13.39718551		1.16644075		-0.00019682		-0.00012491		 0.00000554	
O		5.71396226		8.27873047		6.18526694		-0.00019582		 0.00012305		 0.00002072	
O		2.64160533		6.17206159		3.85079831		 0.00019580		-0.00012305		-0.00002071	
O		2.09422693		1.04401488		0.70778660		 0.00027245		-0.00000800		-0.00015212	
O		6.26134066		13.40677718		9.32827865		-0.00027242		 0.00000795		 0.00015213	
O		7.52249636		8.26936327		4.30949269		-0.00027311		 0.00000956		 0.00018369	
O		0.83307123		6.18142985		5.72657256		 0.00027310		-0.00000961		-0.00018369	
O		2.28575325		3.45524970		7.17692205		-0.00007852		-0.00010598		-0.00003623	
O		6.06981328		10.99554343		2.85914320		 0.00007847		 0.00010599		 0.00003624	
O		4.80829547		10.68060232		7.87748023		 0.00006581		-0.00010686		 0.00003751	
O		3.54727106		3.77019081		2.15858396		-0.00006577		 0.00010689		-0.00003752	
O		8.57139337		1.24288611		5.29859291		 0.00011987		-0.00015283		 0.00014811	
O		-0.21582579		13.20790596		4.73747234		-0.00012004		 0.00015271		-0.00014806	
O		-1.47714560		8.46819955		9.75612277		-0.00011876		-0.00015170		-0.00013914	
O		9.83271213		5.98259251		0.27994248		 0.00011899		 0.00015155		 0.00013906	
O		-0.87537770		3.57643994		6.38554637		 0.00004396		 0.00028919		 0.00044963	
O		9.23094422		10.87435212		3.65051888		-0.00004281		-0.00028700		-0.00044858	
O		7.96919242		10.80235902		8.67047587		 0.00001163		 0.00024219		-0.00044960	
O		0.38637623		3.64843199		1.36559043		-0.00001291		-0.00023975		 0.00044842	
O		9.10490574		3.58566526		3.66208733		 0.00003072		 0.00050335		-0.00052132	
O		-0.74933815		10.86512680		6.37397898		-0.00003035		-0.00050146		 0.00051994	
O		0.51267200		10.81071930		1.35578912		-0.00002782		 0.00047673		 0.00049497	
O		7.84289558		3.64007170		8.68027613		 0.00002724		-0.00047371		-0.00049277	
H		-1.29792994		2.78090423		5.99757136		-0.00042226		-0.00052374		 0.00015637	
H		9.65349859		11.66988889		4.03849389		 0.00042118		 0.00052172		-0.00015737	
H		8.39229630		10.00669414		9.05767373		 0.00042344		-0.00046661		-0.00012880	
H		-0.03672871		4.44409898		0.97839046		-0.00042223		 0.00046436		 0.00012993	
H		8.94691266		2.80235552		4.23252216		-0.00016488		-0.00084360		 0.00019964	
H		-0.59134508		11.64843760		5.80354203		 0.00016452		 0.00084186		-0.00019836	
H		0.66980956		10.02736403		0.78513512		 0.00017567		-0.00080546		-0.00015786	
H		7.68575696		4.42343015		9.25093013		-0.00017511		 0.00080266		 0.00015580	
