# total energy = -24711.4791079 eV

CRYSTAL
PRIMVEC
		9.61327117		-1.15359022		0.00000000
		-1.05869460		8.82245504		0.00000000
		-1.62742925		0.19529074		4.91197349
PRIMECORD
   40 1
Mg		1.34603437		5.52006062		1.07424815		-0.00012663		-0.00008088		-0.00031904
Mg		5.58111197		2.34409784		3.83772147		 0.00012663		 0.00008088		 0.00031904
Mg		6.59936581		0.54195261		1.38173666		 0.00022797		 0.00010401		 0.00009453
Mg		0.32778054		7.32220585		3.53023296		-0.00022797		-0.00010401		-0.00009453
Mg		2.10275548		-0.14711579		1.06000267		 0.00005925		 0.00025660		 0.00021767
Mg		4.82439087		8.01127426		3.85196694		-0.00005925		-0.00025660		-0.00021767
Mg		6.14183166		3.71590246		1.39598213		 0.00021456		-0.00018457		 0.00020477
Mg		0.78531469		4.14825601		3.51598748		-0.00021456		 0.00018457		-0.00020477
Si		-0.40021142		3.00098926		1.46327562		-0.00003986		 0.00012120		 0.00029523
Si		7.32735777		4.86317114		3.44869400		 0.00003986		-0.00012120		-0.00029523
Si		7.95135282		6.34650836		0.99270919		-0.00002378		-0.00016278		-0.00002891
Si		-1.02420551		1.51765010		3.91926043		 0.00002378		 0.00016278		 0.00002891
Si		4.05922202		6.79704418		1.11108810		 0.00006533		 0.00005480		-0.00003719
Si		2.86792433		1.06711525		3.80088152		-0.00006533		-0.00005480		 0.00003719
Si		3.49594332		2.51692869		1.34489671		 0.00028569		 0.00018619		-0.00007866
Si		3.43120400		5.34722978		3.56707194		-0.00028569		-0.00018619		 0.00007866
O		7.68818960		2.04168476		0.92295931		 0.00024283		 0.00005912		 0.00014989
O		-0.76104325		5.82247370		3.98901127		-0.00024283		-0.00005912		-0.00014989
O		-0.13979989		7.32875202		1.53302550		-0.00002935		 0.00030569		 0.00010381
O		7.06694721		0.53540741		3.37894412		 0.00002935		-0.00030569		-0.00010381
O		0.15055783		4.33485790		1.57575999		 0.00003308		-0.00007980		 0.00065027
O		6.77658755		3.52930056		3.33620963		-0.00003308		 0.00007980		-0.00065027
O		8.11837917		-0.96898770		0.88022482		 0.00030878		-0.00021584		-0.00010314
O		-1.19123282		8.83314810		4.03174480		-0.00030878		 0.00021584		 0.00010314
O		-0.29017860		2.47823362		3.00710746		 0.00031553		-0.00007544		 0.00011519
O		7.21732592		5.38592484		1.90486215		-0.00031553		 0.00007544		-0.00011519
O		6.33797250		6.03056339		4.36084696		 0.00030391		-0.00002022		-0.00005688
O		0.58917385		1.83359604		0.55112266		-0.00030391		 0.00002022		 0.00005688
O		2.50653771		6.98510519		0.62922346		 0.00010549		-0.00038314		 0.00007314
O		4.42060864		0.87905424		4.28274713		-0.00010549		 0.00038314		-0.00007314
O		5.04820354		2.33239685		1.82676232		 0.00033179		 0.00016759		-0.00001366
O		1.87894280		5.53176161		3.08520827		-0.00033179		-0.00016759		 0.00001366
O		4.44221068		7.95713990		1.95791113		-0.00010015		 0.00029545		-0.00032167
O		2.48493567		-0.09298143		2.95405848		 0.00010015		-0.00029545		 0.00032167
O		2.81927205		3.80418413		0.49807367		-0.00011715		-0.00010778		 0.00008900
O		4.10787526		4.05997530		4.41389594		 0.00011715		 0.00010778		-0.00008900
O		4.34296871		5.52215780		2.20203617		-0.00033021		-0.00004291		-0.00002403
O		2.58417764		2.34200067		2.70993345		 0.00033021		 0.00004291		 0.00002403
O		3.51434925		1.27388428		0.25394864		-0.00004584		-0.00010528		 0.00013547
O		3.41279807		6.59027516		4.65802098		 0.00004584		 0.00010528		-0.00013547
