# total energy = -24716.2371267 eV

CRYSTAL
PRIMVEC
		9.61327030		0.38453043		0.00000000
		0.35289672		8.82245646		0.00000000
		-1.62742344		-0.06509540		4.91197020
PRIMECORD
   40 1
Mg		2.26836970		5.84610648		1.07424821		 0.00011208		 0.00020473		 0.00020532
Mg		6.07037100		3.29578693		3.83772199		-0.00011208		-0.00020473		-0.00020532
Mg		6.81590476		1.62383578		1.38173689		 0.00026429		 0.00038448		-0.00069187
Mg		1.52283593		7.51805763		3.53023331		-0.00026429		-0.00038448		 0.00069187
Mg		2.11983558		0.19137431		1.06000342		-0.00007551		 0.00011979		 0.00006589
Mg		6.21890415		8.95052006		3.85196678		 0.00007551		-0.00011979		-0.00006589
Mg		6.86470900		4.78534108		1.39598168		-0.00032888		 0.00032899		-0.00021432
Mg		1.47403074		4.35655233		3.51598756		 0.00032888		-0.00032899		 0.00021432
Si		0.07916701		2.99447971		1.46327643		-0.00015712		-0.00003514		-0.00019593
Si		8.25957369		6.14741370		3.44869377		 0.00015712		 0.00003514		 0.00019593
Si		9.13652684		7.76094736		0.99270867		-0.00041989		 0.00075180		-0.00007275
Si		-0.79778615		1.38094701		3.91926057		 0.00041989		-0.00075180		 0.00007275
Si		5.24171409		7.58841858		1.11108782		 0.00008182		 0.00024607		 0.00009792
Si		3.09702565		1.55347483		3.80088239		-0.00008182		-0.00024607		-0.00009792
Si		3.97263764		3.13348330		1.34489729		-0.00012258		 0.00004983		-0.00039479
Si		4.36610209		6.00841011		3.56707195		 0.00012258		-0.00004983		 0.00039479
O		8.16940222		3.32954110		0.92295865		-0.00003072		 0.00015547		-0.00047524
O		0.16933943		5.81235328		3.98901059		 0.00003072		-0.00015547		 0.00047524
O		1.04720947		7.44882522		1.53302645		 0.00020075		-0.00058605		 0.00031622
O		7.29153123		1.69306915		3.37894375		-0.00020075		 0.00058605		-0.00031622
O		0.85720229		4.44374514		1.57575986		 0.00013958		 0.00014679		-0.00016992
O		7.48153744		4.69814923		3.33621035		-0.00013958		-0.00014679		 0.00016992
O		8.11922604		0.33005368		0.88022524		 0.00048581		 0.00038859		 0.00019739
O		0.21951369		8.81183973		4.03174496		-0.00048581		-0.00038859		-0.00019739
O		0.10647898		2.47940444		3.00710818		 0.00008176		 0.00000657		 0.00000158
O		8.23226171		6.66248994		1.90486202		-0.00008176		-0.00000657		-0.00000158
O		7.44042805		7.17693408		4.36084712		-0.00035928		 0.00032076		-0.00024143
O		0.89831264		1.96496030		0.55112308		 0.00035928		-0.00032076		 0.00024143
O		3.68931199		7.52808363		0.62922312		-0.00013167		-0.00007072		 0.00054333
O		4.64942774		1.61380978		4.28274708		 0.00013167		 0.00007072		-0.00054333
O		5.52518117		3.19734722		1.82676198		 0.00025016		-0.00008722		-0.00076007
O		2.81355857		5.94454716		3.08520823		-0.00025016		 0.00008722		 0.00076007
O		5.82049068		8.83328677		1.95791102		 0.00015654		-0.00013356		 0.00040896
O		2.51824905		0.30860664		2.95405918		-0.00015654		 0.00013356		-0.00040896
O		3.49175525		4.33596637		0.49807408		 0.00025381		-0.00047919		-0.00049656
O		4.84698448		4.80592801		4.41389612		-0.00025381		 0.00047919		 0.00049656
O		5.32402619		6.33475972		2.20203608		-0.00042400		 0.00042041		 0.00014536
O		3.01471355		2.80713369		2.70993412		 0.00042400		-0.00042041		-0.00014536
O		3.78960855		1.86921060		0.25394902		-0.00003067		-0.00007060		-0.00035781
O		4.54913119		7.27268185		4.65802118		 0.00003067		 0.00007060		 0.00035781
