# total energy = -24708.4653351 eV

CRYSTAL
PRIMVEC
		9.61327310		1.53811824		0.00000000
		1.41159514		8.82245504		0.00000000
		-1.62743210		-0.26038680		4.91197024
PRIMECORD
   40 1
Mg		2.96012068		6.09064060		1.07424791		-0.00085179		-0.00073131		 0.00047693
Mg		6.43731448		4.00955367		3.83772136		 0.00085179		 0.00073131		-0.00047693
Mg		6.97830881		2.43524842		1.38173721		 0.00030203		-0.00030613		 0.00028480
Mg		2.41912733		7.66494586		3.53023303		-0.00030203		 0.00030613		-0.00028480
Mg		2.13264636		0.44524235		1.06000287		-0.00047252		-0.00047189		-0.00037431
Mg		7.26478880		9.65495290		3.85196640		 0.00047252		 0.00047189		 0.00037431
Mg		7.40686638		5.58742019		1.39598226		-0.00000738		 0.00048986		-0.00015564
Mg		1.99056879		4.51277506		3.51598799		 0.00000738		-0.00048986		 0.00015564
Si		0.43870006		2.98959893		1.46327627		 0.00001055		 0.00024343		-0.00003787
Si		8.95873510		7.11059535		3.44869398		-0.00001055		-0.00024343		 0.00003787
Si		10.02540779		8.82177453		0.99270886		-0.00006261		 0.00008708		-0.00018580
Si		-0.62797165		1.27841975		3.91926042		 0.00006261		-0.00008708		 0.00018580
Si		6.12858293		8.18194986		1.11108818		-0.00005664		 0.00076715		 0.00041653
Si		3.26885224		1.91824539		3.80088207		 0.00005664		-0.00076715		-0.00041653
Si		4.33015967		3.59589926		1.34489695		 0.00051100		 0.00019186		 0.00020913
Si		5.06727550		6.50429599		3.56707135		-0.00051100		-0.00019186		-0.00020913
O		8.53031091		4.29543299		0.92295857		-0.00014035		-0.00001200		 0.00008062
O		0.86712523		5.80476129		3.98901070		 0.00014035		 0.00001200		-0.00008062
O		1.93746627		7.53887935		1.53302558		-0.00032213		-0.00044992		-0.00010040
O		7.45996987		2.56131492		3.37894369		 0.00032213		 0.00044992		 0.00010040
O		1.38718522		4.52540985		1.57575974		-0.00051290		 0.00022271		 0.00034645
O		8.01025092		5.57478443		3.33620953		 0.00051290		-0.00022271		-0.00034645
O		8.11986046		1.30433576		0.88022538		-0.00004729		-0.00075505		 0.00025810
O		1.27757373		8.79585852		4.03174487		 0.00004729		 0.00075505		-0.00025810
O		0.40397241		2.48028114		3.00710830		-0.00043431		 0.00009029		-0.00009007
O		8.99346373		7.61991216		1.90486194		 0.00043431		-0.00009029		 0.00009007
O		8.26726825		8.03671115		4.36084707		-0.00029862		-0.00092015		 0.00048461
O		1.13016692		2.06348313		0.55112318		 0.00029862		 0.00092015		-0.00048461
O		4.57639293		7.93531743		0.62922267		-0.00048929		 0.00003693		 0.00065845
O		4.82104321		2.16487685		4.28274660		 0.00048929		-0.00003693		-0.00065845
O		5.88291432		3.84605888		1.82676148		 0.00056257		-0.00039775		 0.00014615
O		3.51452084		6.25413540		3.08520779		-0.00056257		 0.00039775		-0.00014615
O		6.85420109		9.49039791		1.95791091		-0.00015240		 0.00093899		 0.00029928
O		2.54323407		0.60979734		2.95405933		 0.00015240		-0.00093899		-0.00029928
O		3.99611765		4.73480188		0.49807421		 0.00020723		-0.00036111		-0.00020023
O		5.40131752		5.36539239		4.41389603		-0.00020723		 0.00036111		 0.00020023
O		6.05981885		6.94421202		2.20203546		 0.00008805		-0.00051317		-0.00012218
O		3.33761631		3.15598323		2.70993381		-0.00008805		 0.00051317		 0.00012218
O		3.99605437		2.31570667		0.25394869		 0.00043919		 0.00013761		-0.00004580
O		5.40138080		7.78448760		4.65802058		-0.00043919		-0.00013761		 0.00004580
