# total energy = -24711.4791079 eV

CRYSTAL
PRIMVEC
		9.61327117		1.15359022		0.00000000
		1.05869460		8.82245504		0.00000000
		-1.62742925		-0.19529074		4.91197349
PRIMECORD
   40 1
Mg		2.72953707		6.00912982		1.07424815		-0.00022795		 0.00010405		-0.00009455
Mg		6.31499945		3.77163051		3.83772147		 0.00022795		-0.00010405		 0.00009455
Mg		6.92417390		2.16477795		1.38173666		 0.00012666		-0.00008091		 0.00031899
Mg		2.12036262		7.61598238		3.53023296		-0.00012666		 0.00008091		-0.00031899
Mg		2.12837564		0.36061979		1.06000267		-0.00021457		-0.00018458		-0.00020487
Mg		6.91616088		9.42014151		3.85196694		 0.00021457		 0.00018458		 0.00020487
Mg		7.22614644		5.32005948		1.39598213		-0.00005916		 0.00025657		-0.00021772
Mg		1.81839009		4.46069988		3.51598748		 0.00005916		-0.00025657		 0.00021772
Si		0.31885545		2.99122569		1.46327562		 0.00002374		-0.00016265		 0.00002894
Si		8.72568204		6.78953464		3.44869400		-0.00002374		 0.00016265		-0.00002894
Si		9.72911334		8.46816453		0.99270919		 0.00003990		 0.00012112		-0.00029515
Si		-0.68457681		1.31259580		3.91926043		-0.00003990		-0.00012112		 0.00029515
Si		5.83295956		7.98410590		1.11108810		-0.00028576		 0.00018624		 0.00007857
Si		3.21157696		1.79665540		3.80088152		 0.00028576		-0.00018624		-0.00007857
Si		4.21098626		3.44176054		1.34489671		-0.00006536		 0.00005489		 0.00003723
Si		4.83355124		6.33900075		3.56707194		 0.00006536		-0.00005489		-0.00003723
O		8.41000817		3.97346838		0.92295931		 0.00002941		 0.00030569		-0.00010384
O		0.63452932		5.80729292		3.98901127		-0.00002941		-0.00030569		 0.00010384
O		1.64071425		7.50886197		1.53302550		-0.00024285		 0.00005907		-0.00015005
O		7.40382228		2.27190030		3.37894412		 0.00024285		-0.00005907		 0.00015005
O		1.21052371		4.49818757		1.57575999		-0.00030880		-0.00021584		 0.00010318
O		7.83401281		5.28257276		3.33620963		 0.00030880		 0.00021584		-0.00010318
O		8.11964948		0.97957523		0.88022482		-0.00003312		-0.00007976		-0.00065044
O		0.92488705		8.80118607		4.03174480		 0.00003312		 0.00007976		 0.00065044
O		0.30480653		2.47998901		3.00710746		-0.00030392		-0.00002026		 0.00005686
O		8.73973000		7.30077132		1.90486215		 0.00030392		 0.00002026		-0.00005686
O		7.99165514		7.75011913		4.36084696		-0.00031544		-0.00007530		-0.00011512
O		1.05288236		2.03064217		0.55112266		 0.00031544		 0.00007530		 0.00011512
O		4.28070030		7.79957310		0.62922346		-0.00033184		 0.00016751		 0.00001374
O		4.76383816		1.98118820		4.28274713		 0.00033184		-0.00016751		-0.00001374
O		5.76366960		3.62982155		1.82676232		-0.00010551		-0.00038323		-0.00007316
O		3.28086693		6.15093974		3.08520827		 0.00010551		 0.00038323		 0.00007316
O		6.50963083		9.27136037		1.95791113		 0.00011714		-0.00010775		-0.00008896
O		2.53490570		0.50939996		2.95405848		-0.00011714		 0.00010775		 0.00008896
O		3.82799663		4.60185626		0.49807367		 0.00010012		 0.00029555		 0.00032159
O		5.21653990		5.17890504		4.41389594		-0.00010012		-0.00029555		-0.00032159
O		5.81455460		6.74106052		2.20203617		 0.00004580		-0.00010516		-0.00013551
O		3.22998193		3.03969981		2.70993345		-0.00004580		 0.00010516		 0.00013551
O		3.92723956		2.16687513		0.25394864		 0.00033020		-0.00004291		 0.00002406
O		5.11729793		7.61388617		4.65802098		-0.00033020		 0.00004291		-0.00002406
