# total energy = -24716.5921625 eV	

CRYSTAL	
PRIMVEC	
		10.20500684		0.00003815		-0.26961136	
		0.00003815		8.88957241		0.00000000	
		-1.94594250		0.00000000		5.01281579	
PRIMCOORD
   40 1	
Mg		-0.48645272		7.98542574		1.25320490		-0.00000675		-0.00047961		 0.00000532	
Mg		-1.45945926		0.90414762		3.75961280		 0.00000680		 0.00047657		-0.00000533	
Mg		4.61603353		3.54064240		1.11839827		-0.00000666		-0.00045486		 0.00000529	
Mg		3.64306038		5.34896626		3.62481093		 0.00000658		 0.00045829		-0.00000530	
Mg		-0.48647847		2.31131954		1.25320109		 0.00000158		 0.00022276		 0.00001253	
Mg		-1.45943350		6.57825382		3.75961566		-0.00000150		-0.00022335		-0.00001254	
Mg		4.61604116		6.75612768		1.11839922		 0.00000146		 0.00029880		 0.00001246	
Mg		3.64305274		2.13348097		3.62480998		-0.00000153		-0.00029828		-0.00001245	
Si		2.40127234		0.79358455		1.41249070		 0.00017320		 0.00024990		 0.00005066	
Si		5.85782729		8.09603555		3.33072232		-0.00019056		-0.00028342		-0.00005825	
Si		6.83072700		0.79364178		0.82429726		-0.00005648		 0.00011338		 0.00000074	
Si		1.42836023		8.09597832		3.91891195		 0.00007378		-0.00014654		 0.00000681	
Si		7.50374333		5.23836503		1.27774035		 0.00025951		 0.00030724		 0.00006713	
Si		0.75534485		3.65123218		3.46546695		-0.00024540		-0.00027568		-0.00006055	
Si		1.72828939		5.23838697		0.95904952		-0.00014174		 0.00016950		-0.00001551	
Si		6.53080928		3.65121119		3.78416160		 0.00012809		-0.00013902		 0.00000906	
O		0.89289959		0.82878044		0.78966414		 0.00004097		-0.00011772		-0.00005072	
O		7.36619146		8.06082630		3.95354506		-0.00003305		 0.00012170		 0.00005338	
O		8.33916080		0.82880715		1.44714480		-0.00010335		-0.00011316		 0.00002109	
O		-0.08006403		8.06080055		3.29606632		 0.00009548		 0.00011716		-0.00002382	
O		5.99543448		5.27359526		0.65488231		-0.00000847		-0.00012577		-0.00006991	
O		2.26366133		3.61601530		4.08832785		 0.00000244		 0.00012142		 0.00006793	
O		3.23665929		5.27358573		1.58193044		-0.00005444		-0.00012125		 0.00004012	
O		5.02243271		3.61602484		3.16127876		 0.00006037		 0.00011697		-0.00003808	
O		3.19877634		2.17257629		1.62851364		 0.00007892		-0.00008063		 0.00002187	
O		5.06031279		6.71702474		3.11469461		-0.00006579		 0.00010196		-0.00001941	
O		6.03329549		2.17254958		0.60828862		-0.00014260		 0.00002928		-0.00003637	
O		2.22580414		6.71705335		4.13492153		 0.00012965		-0.00000840		 0.00003396	
O		8.30131410		6.61737966		1.49368507		 0.00003888		-0.00012425		 0.00002870	
O		-0.04221638		2.27223472		3.24952509		-0.00005048		 0.00010512		-0.00003079	
O		0.93079112		6.61731575		0.74312196		-0.00010329		-0.00001309		-0.00004327	
O		7.32829802		2.27229863		4.00008724		 0.00011436		-0.00000506		 0.00004530	
O		3.31556246		-0.25596338		0.49660475		 0.00001165		 0.00002740		-0.00001684	
O		4.94353240		9.14556632		4.24660445		-0.00001676		-0.00001660		 0.00002589	
O		5.91646168		-0.25595957		1.74020323		 0.00000284		 0.00005375		-0.00000488	
O		2.34262937		9.14556727		3.00301170		 0.00000219		-0.00004311		-0.00000428	
O		8.41805921		4.18882091		0.36187062		 0.00000287		 0.00001065		-0.00003067	
O		-0.15896721		4.70079251		4.38134145		 0.00000225		-0.00002138		 0.00002153	
O		0.81399927		4.18878562		1.87493832		 0.00001175		 0.00003714		 0.00000889	
O		7.44509654		4.70082590		2.86826707		-0.00001681		-0.00004781		 0.00000030	
