# total energy = -24716.417239 eV	

CRYSTAL	
PRIMVEC	
		10.00462736		0.00005723		-0.21517400	
		0.00004769		8.63959170		0.00000954	
		-1.88038301		-0.00000954		4.91585491	
PRIMCOORD
   40 1	
Mg		-0.47005188		7.82238360		1.22896611		-0.00000286		-0.00008102		 0.00001017	
Mg		-1.41028344		0.81719760		3.68689261		 0.00001055		 0.00010095		-0.00000378	
Mg		4.53223891		3.50261542		1.12137530		-0.00000375		-0.00021964		 0.00001032	
Mg		3.59205408		5.13702302		3.57930943		 0.00001014		 0.00022322		-0.00000423	
Mg		-0.47008240		2.29662422		1.22895943		 0.00000500		-0.00014562		 0.00002339	
Mg		-1.41025101		6.34296271		3.68689929		-0.00000062		 0.00014314		-0.00001653	
Mg		4.53225418		6.61642579		1.12137625		 0.00000470		-0.00025167		 0.00002358	
Mg		3.59203882		2.02321455		3.57930847		-0.00000056		 0.00024727		-0.00001568	
Si		2.36340752		0.79116553		1.38820517		 0.00024058		-0.00012370		 0.00001399	
Si		5.76093317		7.84848435		3.31249196		-0.00038402		 0.00008138		-0.00005531	
Si		6.70100163		0.79123135		0.85453589		-0.00011679		-0.00027803		 0.00004462	
Si		1.42329614		7.84837656		3.84615647		 0.00010890		 0.00037470		-0.00005793	
Si		7.36582327		5.11100431		1.28055617		 0.00012610		-0.00016943		-0.00000499	
Si		0.75855653		3.52871807		3.42015526		-0.00039326		-0.00010347		-0.00008947	
Si		1.69862690		5.11101957		0.96218966		 0.00001602		-0.00033744		 0.00007003	
Si		6.42562508		3.52866656		3.73848648		 0.00011990		 0.00018546		-0.00002273	
O		0.86470033		0.80613080		0.78613578		-0.00000629		 0.00004126		-0.00030752	
O		7.25957073		7.83351718		3.91454418		 0.00008195		-0.00006350		 0.00033729	
O		8.19977273		0.80616896		1.45662817		-0.00007588		 0.00004905		 0.00026735	
O		-0.07547496		7.83348093		3.24406037		 0.00006178		-0.00007883		-0.00027393	
O		5.86702641		5.12594000		0.67853256		 0.00007435		 0.00005230		-0.00028516	
O		2.25722462		3.51369748		4.02214262		 0.00006085		-0.00004515		 0.00033319	
O		3.19749720		5.12592379		1.56423902		-0.00016631		 0.00005999		 0.00024103	
O		4.92682441		3.51371560		3.13645525		 0.00008210		-0.00006050		-0.00027027	
O		3.12935082		2.17308661		1.58161662		-0.00011559		-0.00009016		 0.00010621	
O		4.99492691		6.46652989		3.11906906		 0.00016709		 0.00016715		-0.00009588	
O		5.93512700		2.17306467		0.66114447		 0.00004646		 0.00003333		-0.00012298	
O		2.18916027		6.46659285		4.03954312		-0.00002649		-0.00008640		 0.00012274	
O		8.13166737		6.49292347		1.47406682		-0.00007564		-0.00006130		 0.00008974	
O		-0.00742302		2.14664724		3.22661695		 0.00022132		 0.00029533		-0.00006675	
O		0.93286102		6.49284335		0.76870190		-0.00000184		 0.00007606		-0.00010802	
O		7.19146346		2.14676266		3.93198760		-0.00008285		 0.00004488		 0.00009335	
O		3.28793553		-0.26913633		0.51722742		-0.00003533		-0.00017192		-0.00000516	
O		4.83635079		8.90878144		4.18346970		 0.00005387		 0.00014473		-0.00002121	
O		5.77648984		-0.26912774		1.72553366		 0.00005922		-0.00013726		-0.00001859	
O		2.34780793		8.90877763		2.97514438		-0.00007011		 0.00010634		 0.00005263	
O		8.29030930		4.05067860		0.40957175		-0.00002727		-0.00013083		 0.00001911	
O		-0.16600867		4.58894744		4.29110821		 0.00001262		 0.00017156		 0.00000814	
O		0.77416376		4.05063281		1.83319602		 0.00005081		-0.00009631		-0.00004255	
O		7.35012161		4.58899704		2.86749920		-0.00002885		 0.00013405		 0.00002179	
