# total energy = -24716.2314928 eV	

CRYSTAL	
PRIMVEC	
		10.31430126		0.00002862		-0.29724497	
		0.00002862		9.03301538		0.00000000	
		-1.98033905		0.00000000		5.05004534	
PRIMCOORD
   40 1	
Mg		-0.49506139		8.06159703		1.26251372		-0.00000478		 0.00016941		 0.00000407	
Mg		-1.48525667		0.97141549		3.78753830		 0.00000612		-0.00018022		-0.00000331	
Mg		4.66207493		3.54509793		1.11388933		-0.00000507		 0.00024943		 0.00000415	
Mg		3.67190445		5.48793081		3.63891676		 0.00000583		-0.00023675		-0.00000367	
Mg		-0.49507856		2.31465713		1.26251086		 0.00000163		-0.00013613		 0.00000958	
Mg		-1.48523855		6.71835252		3.78754211		-0.00000104		 0.00013343		-0.00000898	
Mg		4.66208161		6.83117722		1.11388933		 0.00000118		-0.00024599		 0.00000945	
Mg		3.67189873		2.20185628		3.63891676		-0.00000104		 0.00024751		-0.00000870	
Si		2.42192458		0.79871732		1.41227799		 0.00006565		-0.00015855		 0.00002570	
Si		5.91208341		8.23436387		3.34053669		-0.00014131		 0.00002639		-0.00005691	
Si		6.90218235		0.79875739		0.81549208		 0.00000212		-0.00024684		 0.00000699	
Si		1.43177604		8.23431713		3.93730733		 0.00005604		 0.00013257		 0.00001803	
Si		7.57905423		5.31520784		1.26364501		 0.00015392		-0.00007626		 0.00005955	
Si		0.75491370		3.71779227		3.48915631		-0.00012258		 0.00017181		-0.00004234	
Si		1.74507369		5.31522406		0.96412697		-0.00007860		-0.00017013		-0.00002431	
Si		6.58892190		3.71777224		3.78868485		 0.00003514		 0.00027840		 0.00000293	
O		0.91031153		0.85335500		0.78017123		 0.00004068		 0.00010034		-0.00001236	
O		7.42365545		8.17967374		3.97263200		-0.00000729		-0.00008687		 0.00002450	
O		8.41383165		0.85337503		1.44761315		-0.00007851		 0.00010256		-0.00000638	
O		-0.07984178		8.17965466		3.30519485		 0.00005104		-0.00008994		-0.00000351	
O		6.06749078		5.36987604		0.63155733		-0.00000479		 0.00009092		-0.00003557	
O		2.26649337		3.66316319		4.12124972		-0.00000674		-0.00010588		 0.00003160	
O		3.25667816		5.36986936		1.59623086		-0.00003606		 0.00009296		 0.00001550	
O		5.07729645		3.66316986		3.15657427		 0.00005153		-0.00010899		-0.00001014	
O		3.23199868		2.17568495		1.65074263		-0.00006538		-0.00012163		 0.00000468	
O		5.10196162		6.85731898		3.10206060		 0.00011997		 0.00020951		 0.00000672	
O		6.09215308		2.17566873		0.57703793		 0.00002702		-0.00005641		-0.00001490	
O		2.24184347		6.85733997		4.17577006		-0.00007235		 0.00012815		 0.00000548	
O		8.38917030		6.69222030		1.50212873		-0.00010013		-0.00017133		-0.00001093	
O		-0.05517756		2.34083228		3.25067927		 0.00006845		 0.00012040		 0.00000425	
O		0.93500627		6.69217642		0.72565565		 0.00005815		-0.00010042		-0.00000014	
O		7.39895880		2.34088093		4.02714853		-0.00002065		 0.00003864		 0.00000795	
O		3.33255470		-0.23393853		0.46881471		-0.00008768		 0.00001027		-0.00001473	
O		5.00143326		9.26695772		4.28397898		 0.00006974		 0.00002890		 0.00005013	
O		5.99156463		-0.23393853		1.75896967		 0.00010108		 0.00003332		-0.00000601	
O		2.34240712		9.26695868		2.99384882		-0.00008217		 0.00000562		-0.00002870	
O		8.48971487		4.28258729		0.32020367		-0.00008491		-0.00001812		-0.00004431	
O		-0.15574217		4.75046052		4.43261387		 0.00010442		-0.00002093		 0.00000929	
O		0.83442926		4.28255963		1.90758357		 0.00009775		 0.00000467		 0.00002341	
O		7.49955870		4.75048819		2.84521012		-0.00011637		-0.00004382		 0.00001196	
