# total energy = -18531.20048 eV	

CRYSTAL	
PRIMVEC	
		7.66645502		-0.00023186		-0.07565597	
		-0.00020375		6.95696251		-0.00034427	
		-0.51825884		-0.00021781		4.87454745	
PRIMCOORD
   30 1	
Mg		0.03269830		1.73932986		2.53794436		-0.00040160		-0.00021001		-0.00005866	
Mg		7.11529483		5.21717948		2.26060004		 0.00040160		 0.00021001		 0.00005865	
Mg		5.03530795		1.74010131		4.45162371		-0.00030803		-0.00032428		-0.00023441	
Mg		2.11268588		5.21640802		0.34692069		 0.00030803		 0.00032429		 0.00023442	
Mg		2.81355256		1.74037533		0.34905589		 0.00055514		-0.00023986		 0.00045112	
Mg		4.33444057		5.21613471		4.44948851		-0.00055514		 0.00023986		-0.00045112	
Si		0.00000000		0.00000000		0.00000000		0.00000000		 0.00000001		 0.00000001	
Si		-0.00010188		3.47847985		-0.00017354		0.00000000		-0.00000000		0.00000000	
Si		2.23347898		3.49609684		2.69023642		-0.00006484		-0.00004695		-0.00000646	
Si		4.91451415		3.46041249		2.10830798		 0.00006484		 0.00004694		 0.00000646	
Si		4.91449097		0.01724321		2.10849698		 0.00007701		-0.00004102		 0.00001641	
Si		2.23350216		6.93926612		2.69004743		-0.00007701		 0.00004102		-0.00001641	
O		6.03248214		3.84362950		0.70804023		 0.00005557		-0.00001677		-0.00012893	
O		1.11551099		3.11288054		4.09050417		-0.00005559		 0.00001676		 0.00012894	
O		1.11573793		0.36590916		4.09035873		-0.00007104		-0.00007927		 0.00012769	
O		6.03225520		6.59060017		0.70818567		 0.00007104		 0.00007928		-0.00012772	
O		6.31750517		3.08451095		3.21774078		-0.00018617		 0.00003257		 0.00006912	
O		0.83048795		3.87199908		1.58080363		 0.00018616		-0.00003259		-0.00006912	
O		0.83029193		6.56405103		1.58065819		 0.00019184		-0.00013534		-0.00007742	
O		6.31770120		0.39245831		3.21788621		-0.00019183		 0.00013534		 0.00007743	
O		2.03752384		1.73972050		2.18685795		-0.00012652		-0.00012699		 0.00019271	
O		5.11046929		5.21678953		2.61168645		 0.00012651		 0.00012698		-0.00019275	
O		3.37293458		3.79715532		1.26648287		 0.00004304		-0.00030292		 0.00007441	
O		3.77505855		3.15935472		3.53206153		-0.00004305		 0.00030290		-0.00007440	
O		3.77542882		0.31874854		3.53196036		-0.00005219		-0.00024257		-0.00007309	
O		3.37256431		6.63776079		1.26658404		 0.00005219		 0.00024256		 0.00007309	
O		4.80976703		1.73920128		1.50083510		 0.00002013		-0.00011267		-0.00025202	
O		2.33822610		5.21730805		3.29770930		-0.00002013		 0.00011267		 0.00025203	
O		7.46470764		1.73923641		0.40927644		-0.00017128		-0.00011166		 0.00012113	
O		-0.31671451		5.21727292		4.38926796		 0.00017128		 0.00011168		-0.00012111	
