# total energy = -18531.0084874 eV	

CRYSTAL	
PRIMVEC	
		7.69426392		-0.00030212		-0.08091142	
		-0.00026699		6.98922590		-0.00030914	
		-0.52300841		-0.00018970		4.90383182	
PRIMCOORD
   30 1	
Mg		0.02525285		1.74751585		2.54998903		-0.00018960		-0.00022847		 0.00002059	
Mg		7.14573497		5.24122034		2.27262504		 0.00018960		 0.00022847		-0.00002059	
Mg		5.04622144		1.74799151		4.47661730		-0.00020852		-0.00031037		-0.00013804	
Mg		2.12476708		5.24074468		0.34599607		 0.00020851		 0.00031037		 0.00013804	
Mg		2.80268123		1.74879107		0.36029117		 0.00057984		-0.00026962		 0.00074436	
Mg		4.36830659		5.23994512		4.46232290		-0.00057984		 0.00026962		-0.00074436	
Si		0.00000000		0.00000000		0.00000000		0.00000000		0.00000000		0.00000000	
Si		-0.00013209		3.49461295		-0.00015457		0.00000000		0.00000000		0.00000000	
Si		2.24079023		3.51313138		2.70620863		-0.00004329		 0.00002327		-0.00006898	
Si		4.93019759		3.47560411		2.11640474		 0.00004329		-0.00002327		 0.00006898	
Si		4.93017932		0.01803785		2.11658812		 0.00005308		 0.00002978		 0.00007567	
Si		2.24080850		6.97069834		2.70602525		-0.00005308		-0.00002978		-0.00007567	
O		6.05403228		3.85794357		0.70865360		 0.00001623		-0.00006563		-0.00010854	
O		1.11695554		3.13079262		4.11395977		-0.00001624		 0.00006562		 0.00010854	
O		1.11723025		0.36424962		4.11377920		-0.00001648		-0.00014598		 0.00010912	
O		6.05375757		6.62448657		0.70883417		 0.00001650		 0.00014598		-0.00010912	
O		6.33753630		3.09995270		3.23511888		-0.00021416		 0.00010044		 0.00008954	
O		0.83345222		3.88878349		1.58749519		 0.00021417		-0.00010045		-0.00008954	
O		0.83324004		6.59565327		1.58736240		 0.00021514		-0.00005360		-0.00009469	
O		6.33774849		0.39308292		3.23525097		-0.00021514		 0.00005360		 0.00009469	
O		2.03858336		1.74786575		2.20723616		-0.00020319		-0.00013017		 0.00005357	
O		5.13240517		5.24087045		2.61537721		 0.00020319		 0.00013016		-0.00005357	
O		3.38147538		3.80987660		1.27840599		 0.00006190		-0.00025095		 0.00005527	
O		3.78951314		3.17885959		3.54420738		-0.00006190		 0.00025094		-0.00005528	
O		3.78992627		0.31521376		3.54405070		-0.00006216		-0.00015723		-0.00005490	
O		3.38106225		6.67352243		1.27856267		 0.00006216		 0.00015723		 0.00005490	
O		4.82898876		1.74727837		1.50833816		-0.00000946		-0.00012056		-0.00017324	
O		2.34199976		5.24145782		3.31427591		 0.00000946		 0.00012057		 0.00017324	
O		7.49368919		1.74726432		0.40335493		-0.00038262		-0.00012596		 0.00006921	
O		-0.32270067		5.24147187		4.41925844		 0.00038261		 0.00012595		-0.00006921	
