# total energy = -18531.3952385 eV	

CRYSTAL	
PRIMVEC	
		7.61574837		-0.00034427		-0.06583362	
		-0.00030212		6.89867481		-0.00046372	
		-0.50945526		-0.00028807		4.82148710	
PRIMCOORD
   30 1	
Mg		0.04476546		1.72469962		2.51508738		-0.00039671		-0.00024226		 0.00002149	
Mg		7.06122695		5.17334356		2.24009958		 0.00039671		 0.00024226		-0.00002149	
Mg		5.01507097		1.72544648		4.40664607		-0.00020999		-0.00043015		-0.00038101	
Mg		2.09092144		5.17259670		0.34854159		 0.00020999		 0.00043015		 0.00038102	
Mg		2.82989363		1.72646736		0.32855824		 0.00000669		-0.00041011		-0.00013701	
Mg		4.27609877		5.17157582		4.42662941		-0.00000669		 0.00041011		 0.00013701	
Si		0.00000000		0.00000000		0.00000000		-0.00000000		-0.00000000		0.00000000	
Si		-0.00014965		3.44933811		-0.00023186		-0.00000000		-0.00000000		-0.00000000	
Si		2.22040710		3.46535388		2.66168065		-0.00006581		 0.00002586		-0.00002495	
Si		4.88558530		3.43269000		2.09350700		 0.00006581		-0.00002585		 0.00002495	
Si		4.88552417		0.01565744		2.09372903		 0.00006259		-0.00000475		 0.00002674	
Si		2.22046823		6.88238574		2.66145863		-0.00006259		 0.00000475		-0.00002674	
O		5.99304379		3.81724125		0.70613689		 0.00008682		-0.00006450		-0.00007021	
O		1.11294861		3.08080263		4.04905077		-0.00008683		 0.00006452		 0.00007020	
O		1.11321138		0.36856288		4.04903391		-0.00007306		-0.00004947		 0.00008202	
O		5.99278032		6.52948030		0.70615375		 0.00007307		 0.00004947		-0.00008203	
O		6.28124048		3.05625168		3.18618841		-0.00014128		 0.00007879		 0.00009600	
O		0.82475122		3.84179150		1.56899924		 0.00014128		-0.00007879		-0.00009600	
O		0.82455239		6.50658116		1.56878565		 0.00013380		-0.00005579		-0.00009196	
O		6.28144001		0.39146202		3.18640200		-0.00013381		 0.00005579		 0.00009194	
O		2.03544063		1.72504178		2.15128250		-0.00015090		-0.00010793		 0.00020446	
O		5.07055177		5.17300139		2.60390445		 0.00015091		 0.00010793		-0.00020445	
O		3.35667782		3.77315591		1.24519198		 0.00007270		-0.00014059		 0.00011577	
O		3.74931458		3.12488727		3.50999568		-0.00007269		 0.00014060		-0.00011577	
O		3.74969329		0.32421266		3.50985726		-0.00006602		-0.00016696		-0.00012157	
O		3.35629912		6.57383052		1.24533039		 0.00006602		 0.00016695		 0.00012156	
O		4.77566493		1.72458509		1.48742809		 0.00006437		-0.00011844		-0.00012977	
O		2.33032747		5.17345808		3.26775957		-0.00006438		 0.00011843		 0.00012977	
O		7.41324008		1.72459774		0.42042319		-0.00025826		-0.00011779		 0.00003395	
O		-0.30724768		5.17344544		4.33476446		 0.00025826		 0.00011780		-0.00003396	
