# total energy = -24716.3070621 eV	

CRYSTAL	
PRIMVEC	
		9.53869699		0.00000000		0.76309385	
		0.00000000		8.66010320		0.00000000	
		-1.28841283		0.00000000		4.84921761	
PRIMCOORD
   40 1	
Mg		-0.32210417		7.83046244		1.21230536		 0.00000003		-0.00075134		-0.00000004	
Mg		-0.96631250		0.82963693		3.63691417		-0.00000003		 0.00075134		 0.00000004	
Mg		4.44724624		3.50041276		1.59385324		 0.00000002		-0.00075572		-0.00000004	
Mg		3.80303695		5.15968662		4.01846204		-0.00000002		 0.00075572		 0.00000004	
Mg		-0.32210417		2.47332452		1.21230536		-0.00000001		 0.00078120		-0.00000004	
Mg		-0.96631250		6.18677486		3.63691417		 0.00000001		-0.00078120		 0.00000004	
Mg		4.44724624		6.80337516		1.59385324		-0.00000001		 0.00078379		-0.00000003	
Mg		3.80303695		1.85672517		4.01846204		 0.00000001		-0.00078379		 0.00000003	
Si		2.47093031		0.79655629		1.41445322		 0.00026565		 0.00003569		-0.00082676	
Si		5.77935289		7.86354404		4.19786206		-0.00026565		-0.00003569		 0.00082676	
Si		6.42356122		0.79655629		1.77325326		-0.00026607		 0.00003620		 0.00082625	
Si		1.82672198		7.86354404		3.83906203		 0.00026607		-0.00003620		-0.00082625	
Si		7.24027976		5.12660598		1.79600110		 0.00025706		 0.00004226		-0.00082797	
Si		1.01000344		3.53349339		3.81631418		-0.00025706		-0.00004226		 0.00082797	
Si		1.65421081		5.12660598		1.39170538		-0.00025761		 0.00004290		 0.00082738	
Si		6.59607143		3.53349339		4.22060991		 0.00025761		-0.00004290		-0.00082738	
O		0.90007180		0.71705559		0.75542224		-0.00024000		-0.00019861		-0.00000353	
O		7.35021140		7.94304283		4.85689305		 0.00024000		 0.00019861		 0.00000353	
O		7.99441973		0.71705559		2.43228328		 0.00024028		-0.00019866		 0.00000369	
O		0.25586347		7.94304283		3.18003200		-0.00024028		 0.00019866		-0.00000369	
O		5.66942125		5.04710719		1.13697012		-0.00023080		-0.00020000		-0.00000216	
O		2.58086099		3.61299410		4.47534517		 0.00023080		 0.00020000		 0.00000216	
O		3.22507028		5.04710719		2.05073445		 0.00023110		-0.00020006		 0.00000228	
O		5.02521292		3.61299410		3.56157988		-0.00023110		 0.00020006		-0.00000228	
O		3.05868242		2.23170764		1.81902836		 0.00028603		 0.00080454		 0.00005002	
O		5.19159886		6.42839269		3.79328692		-0.00028603		-0.00080454		-0.00005002	
O		5.83580815		2.23170764		1.36867716		-0.00028582		 0.00080411		-0.00004971	
O		2.41447505		6.42839269		4.24363812		 0.00028582		-0.00080411		 0.00004971	
O		7.82803379		6.56175637		2.20057624		 0.00028277		 0.00079939		 0.00005158	
O		0.42225036		2.09834205		3.41173904		-0.00028277		-0.00079939		-0.00005158	
O		1.06645774		6.56175637		0.98712928		-0.00028254		 0.00079883		-0.00005121	
O		7.18382450		2.09834205		4.62518600		 0.00028254		-0.00079883		 0.00005121	
O		3.34632034		0.05629067		0.39547486		-0.00011318		 0.00072708		 0.00039691	
O		4.90396286		8.60380870		5.21683947		 0.00011318		-0.00072708		-0.00039691	
O		5.54817119		0.05629067		2.79223066		 0.00011324		 0.00072699		-0.00039687	
O		2.70211200		8.60380870		2.82008366		-0.00011324		-0.00072699		 0.00039687	
O		8.11567074		4.38634131		0.77702274		-0.00011088		 0.00072686		 0.00039744	
O		0.13461341		4.27375902		4.83529159		 0.00011088		-0.00072686		-0.00039744	
O		0.77882078		4.38634131		2.41068279		 0.00011090		 0.00072672		-0.00039734	
O		7.47146145		4.27375902		3.20163154		-0.00011090		-0.00072672		 0.00039734	
