# total energy = -24712.6442552 eV	

CRYSTAL	
PRIMVEC	
		9.53870319		0.00000000		1.52619676	
		0.00000000		8.66009508		0.00000000	
		-0.88967850		0.00000000		4.71424599	
PRIMCOORD
   40 1	
Mg		-0.22242011		7.83046232		1.17856150		-0.00000000		-0.00059005		-0.00000001	
Mg		-0.66726129		0.82963662		3.53568449		0.00000000		 0.00059005		 0.00000001	
Mg		4.54692955		3.50041285		1.94165795		-0.00000002		-0.00061587		-0.00000000	
Mg		4.10208837		5.15968706		4.29878094		 0.00000002		 0.00061587		0.00000000	
Mg		-0.22242011		2.47332535		1.17856150		-0.00000001		 0.00012267		0.00000000	
Mg		-0.66726129		6.18677456		3.53568449		 0.00000001		-0.00012267		-0.00000000	
Mg		4.54692955		6.80337482		1.94165795		 0.00000001		 0.00015483		-0.00000000	
Mg		4.10208837		1.85672509		4.29878094		-0.00000001		-0.00015483		0.00000000	
Si		2.56889969		0.79655587		1.60429032		-0.00022321		 0.00048490		-0.00049082	
Si		6.08011921		7.86354404		4.63614856		 0.00022321		-0.00048490		 0.00049082	
Si		6.52495942		0.79655587		2.27902557		 0.00022296		 0.00048511		 0.00049059	
Si		2.12405851		7.86354404		3.96141332		-0.00022296		-0.00048511		-0.00049059	
Si		7.33824935		5.12660534		2.36738580		 0.00007088		 0.00064833		-0.00032740	
Si		1.31076858		3.53349360		3.87305308		-0.00007088		-0.00064833		 0.00032740	
Si		1.75560976		5.12660534		1.51593009		-0.00007070		 0.00064814		 0.00032759	
Si		6.89340914		3.53349360		4.72450880		 0.00007070		-0.00064814		-0.00032759	
O		0.95509714		0.71705581		0.82302627		 0.00009828		 0.00056663		-0.00014603	
O		7.69392175		7.94304313		5.41741262		-0.00009828		-0.00056663		 0.00014603	
O		8.13876197		0.71705581		3.06028962		-0.00009818		 0.00056662		 0.00014607	
O		0.51025596		7.94304313		3.18014926		 0.00009818		-0.00056662		-0.00014607	
O		5.72444680		5.04710721		1.58612175		-0.00006046		 0.00054926		-0.00019128	
O		2.92457112		3.61299366		4.65431714		 0.00006046		-0.00054926		 0.00019128	
O		3.36941231		5.04710721		2.29719414		 0.00006035		 0.00054922		 0.00019126	
O		5.27960562		3.61299366		3.94324474		-0.00006035		-0.00054922		-0.00019126	
O		3.18544102		2.23170788		2.05358188		 0.00057972		 0.00005972		 0.00009237	
O		5.46357690		6.42839300		4.18685605		-0.00057972		-0.00005972		-0.00009237	
O		5.90841809		2.23170788		1.82973305		-0.00057961		 0.00005949		-0.00009222	
O		2.74060081		6.42839300		4.41070584		 0.00057961		-0.00005949		 0.00009222	
O		7.95479165		6.56175638		2.81667929		 0.00046090		-0.00011165		-0.00000470	
O		0.69422724		2.09834159		3.42375960		-0.00046090		 0.00011165		 0.00000470	
O		1.13906842		6.56175638		1.06663660		-0.00046098		-0.00011149		 0.00000458	
O		7.50995047		2.09834159		5.17380132		 0.00046098		 0.00011149		-0.00000458	
O		3.35660794		0.05629089		0.66235689		 0.00018792		-0.00047762		-0.00019457	
O		5.29241095		8.60380902		5.57808103		-0.00018792		 0.00047762		 0.00019457	
O		5.73725116		0.05629089		3.22095803		-0.00018796		-0.00047760		 0.00019463	
O		2.91176676		8.60380902		3.01948085		 0.00018796		 0.00047760		-0.00019463	
O		8.12595761		4.38634036		1.42545334		 0.00014286		-0.00050426		-0.00021034	
O		0.52306129		4.27375858		4.81498554		-0.00014286		 0.00050426		 0.00021034	
O		0.96790150		4.38634036		2.45786158		-0.00014290		-0.00050419		 0.00021031	
O		7.68111643		4.27375858		3.78257730		 0.00014290		 0.00050419		-0.00021031	
