# total energy = -49432.2548616 eV	

CRYSTAL	
PRIMVEC	
		18.23299940		0.00000000		0.00000000	
		0.00000000		8.81910125		0.00000000	
		0.00000000		0.00000000		5.56872268	
PRIMCOORD
   80 1	
Mg		6.86107767		5.76857458		4.82417815		-0.00027624		 0.00005108		 0.00000799	
Mg		11.37192172		3.05052666		0.74453724		 0.00027624		-0.00005108		-0.00000799	
Mg		2.25542203		3.05052666		2.03982045		 0.00027624		-0.00005108		 0.00000799	
Mg		15.97757737		5.76857458		3.52889493		-0.00027624		 0.00005108		-0.00000799	
Mg		11.37192172		1.35902214		3.52889493		 0.00027624		 0.00005108		-0.00000799	
Mg		6.86107767		7.46007729		2.03982045		-0.00027624		-0.00005108		 0.00000799	
Mg		15.97757737		7.46007729		0.74453724		-0.00027624		-0.00005108		-0.00000799	
Mg		2.25542203		1.35902214		4.82417815		 0.00027624		 0.00005108		 0.00000799	
Mg		6.87201747		4.29666648		1.99861205		-0.00048637		-0.00006799		 0.00021515	
Mg		11.36098192		4.52243295		3.57010333		 0.00048637		 0.00006799		-0.00021515	
Mg		2.24448223		4.52243295		4.78296974		 0.00048637		 0.00006799		 0.00021515	
Mg		15.98851717		4.29666648		0.78574564		-0.00048637		-0.00006799		-0.00021515	
Mg		11.36098192		8.70621528		0.78574564		 0.00048637		-0.00006799		-0.00021515	
Mg		6.87201747		0.11288415		4.78296974		-0.00048637		 0.00006799		 0.00021515	
Mg		15.98851717		0.11288415		3.57010333		-0.00048637		 0.00006799		-0.00021515	
Mg		2.24448223		8.70621528		1.99861205		 0.00048637		-0.00006799		 0.00021515	
Si		4.95025934		3.01436880		0.28177642		-0.00040988		-0.00023563		-0.00041130	
Si		13.28274006		5.80473244		5.28693714		 0.00040988		 0.00023563		 0.00041130	
Si		4.16624036		5.80473244		3.06613411		 0.00040988		 0.00023563		-0.00041130	
Si		14.06675903		3.01436880		2.50258127		-0.00040988		-0.00023563		 0.00041130	
Si		13.28274006		7.42391760		2.50258127		 0.00040988		-0.00023563		 0.00041130	
Si		4.95025934		1.39518182		3.06613411		-0.00040988		 0.00023563		-0.00041130	
Si		14.06675903		1.39518182		5.28693714		-0.00040988		 0.00023563		 0.00041130	
Si		4.16624036		7.42391760		0.28177642		 0.00040988		-0.00023563		-0.00041130	
Si		8.63514851		2.97556351		4.44439024		-0.00008093		-0.00000723		 0.00038086	
Si		9.59785088		5.84353591		1.12432332		 0.00008093		 0.00000723		-0.00038086	
Si		0.48135118		5.84353591		1.66003437		 0.00008093		 0.00000723		 0.00038086	
Si		17.75164821		2.97556351		3.90868101		-0.00008093		-0.00000723		-0.00038086	
Si		9.59785088		7.38511413		3.90868101		 0.00008093		-0.00000723		-0.00038086	
Si		8.63514851		1.43398529		1.66003437		-0.00008093		 0.00000723		 0.00038086	
Si		17.75164821		1.43398529		1.12432332		-0.00008093		 0.00000723		-0.00038086	
Si		0.48135118		7.38511413		4.44439024		 0.00008093		-0.00000723		 0.00038086	
O		3.34575539		3.00466702		0.18933511		-0.00019253		-0.00009458		 0.00077522	
O		14.88724401		5.81443240		5.37937845		 0.00019253		 0.00009458		-0.00077522	
O		5.77074431		5.81443240		2.97369463		 0.00019253		 0.00009458		 0.00077522	
O		12.46225509		3.00466702		2.59502076		-0.00019253		-0.00009458		-0.00077522	
O		14.88724401		7.41421765		2.59502076		 0.00019253		-0.00009458		-0.00077522	
O		3.34575539		1.40488360		2.97369463		-0.00019253		 0.00009458		 0.00077522	
O		12.46225509		1.40488360		5.37937845		-0.00019253		 0.00009458		-0.00077522	
O		5.77074431		7.41421765		0.18933511		 0.00019253		-0.00009458		 0.00077522	
O		5.67775601		4.43512605		0.23945580		-0.00025900		-0.00043953		-0.00061472	
O		12.55524338		4.38397519		5.32925958		 0.00025900		 0.00043953		 0.00061472	
O		3.43874369		4.38397519		3.02381167		 0.00025900		 0.00043953		-0.00061472	
O		14.79425571		4.43512605		2.54490371		-0.00025900		-0.00043953		 0.00061472	
O		12.55524338		0.02557543		2.54490371		 0.00025900		-0.00043953		 0.00061472	
O		5.67775601		8.79352399		3.02381167		-0.00025900		 0.00043953		-0.00061472	
O		14.79425571		8.79352399		5.32925958		-0.00025900		 0.00043953		 0.00061472	
O		3.43874369		0.02557543		0.23945580		 0.00025900		-0.00043953		-0.00061472	
O		5.51548232		1.96136750		4.63317107		-0.00075297		 0.00001306		-0.00044444	
O		12.71751708		6.85773192		0.93554432		 0.00075297		-0.00001306		 0.00044444	
O		3.60101738		6.85773192		1.84881338		 0.00075297		-0.00001306		-0.00044444	
O		14.63198202		1.96136750		3.71990201		-0.00075297		 0.00001306		 0.00044444	
O		12.71751708		6.37091813		3.71990201		 0.00075297		 0.00001306		 0.00044444	
O		5.51548232		2.44818129		1.84881338		-0.00075297		-0.00001306		-0.00044444	
O		14.63198202		2.44818129		0.93554432		-0.00075297		-0.00001306		 0.00044444	
O		3.60101738		6.37091813		4.63317107		 0.00075297		 0.00001306		-0.00044444	
O		10.25059226		3.01084072		4.44383413		-0.00012576		-0.00000064		-0.00079101	
O		7.98240714		5.80825871		1.12488125		 0.00012576		 0.00000064		 0.00079101	
O		17.09890683		5.80825871		1.65947644		 0.00012576		 0.00000064		-0.00079101	
O		1.13409256		3.01084072		3.90923712		-0.00012576		-0.00000064		 0.00079101	
O		7.98240714		7.42039134		3.90923712		 0.00012576		-0.00000064		 0.00079101	
O		10.25059226		1.39870808		1.65947644		-0.00012576		 0.00000064		-0.00079101	
O		1.13409256		1.39870808		1.12488125		-0.00012576		 0.00000064		 0.00079101	
O		17.09890683		7.42039134		4.44383413		 0.00012576		-0.00000064		-0.00079101	
O		7.88394894		4.26491735		3.84241318		-0.00011225		-0.00017108		-0.00004984	
O		10.34905046		4.55418207		1.72630221		 0.00011225		 0.00017108		 0.00004984	
O		1.23255076		4.55418207		1.05805549		 0.00011225		 0.00017108		-0.00004984	
O		17.00044864		4.26491735		4.51065807		-0.00011225		-0.00017108		 0.00004984	
O		10.34905046		8.67446615		4.51065807		 0.00011225		-0.00017108		 0.00004984	
O		7.88394894		0.14463327		1.05805549		-0.00011225		 0.00017108		-0.00004984	
O		17.00044864		0.14463327		1.72630221		-0.00011225		 0.00017108		 0.00004984	
O		1.23255076		8.67446615		3.84241318		 0.00011225		-0.00017108		-0.00004984	
O		8.17385363		1.72060622		3.35793503		 0.00018694		 0.00015876		 0.00008623	
O		10.05914577		7.09849320		2.21078035		-0.00018694		-0.00015876		-0.00008623	
O		0.94264607		7.09849320		0.57357734		-0.00018694		-0.00015876		 0.00008623	
O		17.29035333		1.72060622		4.99513804		 0.00018694		 0.00015876		-0.00008623	
O		10.05914577		6.13015684		4.99513804		-0.00018694		 0.00015876		-0.00008623	
O		8.17385363		2.68894441		0.57357734		 0.00018694		-0.00015876		 0.00008623	
O		17.29035333		2.68894441		2.21078035		 0.00018694		-0.00015876		-0.00008623	
O		0.94264607		6.13015684		3.35793503		-0.00018694		 0.00015876		 0.00008623	
