# total energy = -49430.9071717 eV	

CRYSTAL	
PRIMVEC	
		18.23299940		0.00000000		0.00000000	
		0.00000000		8.81910125		0.00000000	
		0.00000000		0.00000000		5.69821344	
PRIMCOORD
   80 1	
Mg		6.86107767		5.76857458		4.93636761		-0.00093956		 0.00070750		-0.00040454	
Mg		11.37192172		3.05052666		0.76185129		 0.00093956		-0.00070750		 0.00040454	
Mg		2.25542203		3.05052666		2.08725725		 0.00093956		-0.00070750		-0.00040454	
Mg		15.97757737		5.76857458		3.61096166		-0.00093956		 0.00070750		 0.00040454	
Mg		11.37192172		1.35902214		3.61096166		 0.00093956		 0.00070750		 0.00040454	
Mg		6.86107767		7.46007729		2.08725725		-0.00093956		-0.00070750		-0.00040454	
Mg		15.97757737		7.46007729		0.76185129		-0.00093956		-0.00070750		 0.00040454	
Mg		2.25542203		1.35902214		4.93636761		 0.00093956		 0.00070750		-0.00040454	
Mg		6.87201747		4.29666648		2.04509161		 0.00016106		 0.00034865		 0.00014379	
Mg		11.36098192		4.52243295		3.65312912		-0.00016106		-0.00034865		-0.00014379	
Mg		2.24448223		4.52243295		4.89420016		-0.00016106		-0.00034865		 0.00014379	
Mg		15.98851717		4.29666648		0.80401875		 0.00016106		 0.00034865		-0.00014379	
Mg		11.36098192		8.70621528		0.80401875		-0.00016106		 0.00034865		-0.00014379	
Mg		6.87201747		0.11288415		4.89420016		 0.00016106		-0.00034865		 0.00014379	
Mg		15.98851717		0.11288415		3.65312912		 0.00016106		-0.00034865		-0.00014379	
Mg		2.24448223		8.70621528		2.04509161		-0.00016106		 0.00034865		 0.00014379	
Si		4.95025934		3.01436880		0.28832936		 0.00002846		-0.00018792		-0.00030708	
Si		13.28274006		5.80473244		5.40988955		-0.00002846		 0.00018792		 0.00030708	
Si		4.16624036		5.80473244		3.13743972		-0.00002846		 0.00018792		-0.00030708	
Si		14.06675903		3.01436880		2.56077918		 0.00002846		-0.00018792		 0.00030708	
Si		13.28274006		7.42391760		2.56077918		-0.00002846		-0.00018792		 0.00030708	
Si		4.95025934		1.39518182		3.13743972		 0.00002846		 0.00018792		-0.00030708	
Si		14.06675903		1.39518182		5.40988955		 0.00002846		 0.00018792		 0.00030708	
Si		4.16624036		7.42391760		0.28832936		-0.00002846		-0.00018792		-0.00030708	
Si		8.63514851		2.97556351		4.54774946		 0.00022512		 0.00024781		-0.00010092	
Si		9.59785088		5.84353591		1.15047127		-0.00022512		-0.00024781		 0.00010092	
Si		0.48135118		5.84353591		1.69863910		-0.00022512		-0.00024781		-0.00010092	
Si		17.75164821		2.97556351		3.99958163		 0.00022512		 0.00024781		 0.00010092	
Si		9.59785088		7.38511413		3.99958163		-0.00022512		 0.00024781		 0.00010092	
Si		8.63514851		1.43398529		1.69863910		 0.00022512		-0.00024781		-0.00010092	
Si		17.75164821		1.43398529		1.15047127		 0.00022512		-0.00024781		 0.00010092	
Si		0.48135118		7.38511413		4.54774946		-0.00022512		 0.00024781		-0.00010092	
O		3.34575539		3.00466702		0.19373838		-0.00036080		 0.00008329		 0.00038894	
O		14.88724401		5.81443240		5.50448053		 0.00036080		-0.00008329		-0.00038894	
O		5.77074431		5.81443240		3.04284875		 0.00036080		-0.00008329		 0.00038894	
O		12.46225509		3.00466702		2.65537016		-0.00036080		 0.00008329		-0.00038894	
O		14.88724401		7.41421765		2.65537016		 0.00036080		 0.00008329		-0.00038894	
O		3.34575539		1.40488360		3.04284875		-0.00036080		-0.00008329		 0.00038894	
O		12.46225509		1.40488360		5.50448053		-0.00036080		-0.00008329		-0.00038894	
O		5.77074431		7.41421765		0.19373838		 0.00036080		 0.00008329		 0.00038894	
O		5.67775601		4.43512605		0.24502234		 0.00028491		-0.00053921		 0.00028810	
O		12.55524338		4.38397519		5.45319657		-0.00028491		 0.00053921		-0.00028810	
O		3.43874369		4.38397519		3.09413270		-0.00028491		 0.00053921		 0.00028810	
O		14.79425571		4.43512605		2.60408620		 0.00028491		-0.00053921		-0.00028810	
O		12.55524338		0.02557543		2.60408620		-0.00028491		-0.00053921		-0.00028810	
O		5.67775601		8.79352399		3.09413270		 0.00028491		 0.00053921		 0.00028810	
O		14.79425571		8.79352399		5.45319657		 0.00028491		 0.00053921		-0.00028810	
O		3.43874369		0.02557543		0.24502234		-0.00028491		-0.00053921		 0.00028810	
O		5.51548232		1.96136750		4.74091898		 0.00033320		 0.00041233		-0.00018449	
O		12.71751708		6.85773192		0.95730175		-0.00033320		-0.00041233		 0.00018449	
O		3.60101738		6.85773192		1.89180861		-0.00033320		-0.00041233		-0.00018449	
O		14.63198202		1.96136750		3.80641030		 0.00033320		 0.00041233		 0.00018449	
O		12.71751708		6.37091813		3.80641030		-0.00033320		 0.00041233		 0.00018449	
O		5.51548232		2.44818129		1.89180861		 0.00033320		-0.00041233		-0.00018449	
O		14.63198202		2.44818129		0.95730175		 0.00033320		-0.00041233		 0.00018449	
O		3.60101738		6.37091813		4.74091898		-0.00033320		 0.00041233		-0.00018449	
O		10.25059226		3.01084072		4.54718060		 0.00049113		 0.00013112		 0.00028233	
O		7.98240714		5.80825871		1.15104014		-0.00049113		-0.00013112		-0.00028233	
O		17.09890683		5.80825871		1.69806841		-0.00049113		-0.00013112		 0.00028233	
O		1.13409256		3.01084072		4.00015050		 0.00049113		 0.00013112		-0.00028233	
O		7.98240714		7.42039134		4.00015050		-0.00049113		 0.00013112		-0.00028233	
O		10.25059226		1.39870808		1.69806841		 0.00049113		-0.00013112		 0.00028233	
O		1.13409256		1.39870808		1.15104014		 0.00049113		-0.00013112		-0.00028233	
O		17.09890683		7.42039134		4.54718060		-0.00049113		 0.00013112		 0.00028233	
O		7.88394894		4.26491735		3.93177128		 0.00038215		 0.00029107		-0.00006475	
O		10.34905046		4.55418207		1.76644762		-0.00038215		-0.00029107		 0.00006475	
O		1.23255076		4.55418207		1.08266274		-0.00038215		-0.00029107		-0.00006475	
O		17.00044864		4.26491735		4.61555799		 0.00038215		 0.00029107		 0.00006475	
O		10.34905046		8.67446615		4.61555799		-0.00038215		 0.00029107		 0.00006475	
O		7.88394894		0.14463327		1.08266274		 0.00038215		-0.00029107		-0.00006475	
O		17.00044864		0.14463327		1.76644762		 0.00038215		-0.00029107		 0.00006475	
O		1.23255076		8.67446615		3.93177128		-0.00038215		 0.00029107		-0.00006475	
O		8.17385363		1.72060622		3.43602697		-0.00039624		 0.00043635		 0.00030644	
O		10.05914577		7.09849320		2.26219376		 0.00039624		-0.00043635		-0.00030644	
O		0.94264607		7.09849320		0.58691660		 0.00039624		-0.00043635		 0.00030644	
O		17.29035333		1.72060622		5.11130413		-0.00039624		 0.00043635		-0.00030644	
O		10.05914577		6.13015684		5.11130413		 0.00039624		 0.00043635		-0.00030644	
O		8.17385363		2.68894441		0.58691660		-0.00039624		-0.00043635		 0.00030644	
O		17.29035333		2.68894441		2.26219376		-0.00039624		-0.00043635		-0.00030644	
O		0.94264607		6.13015684		3.43602697		 0.00039624		 0.00043635		 0.00030644	
