# total energy = -49429.329025 eV	

CRYSTAL	
PRIMVEC	
		18.23299940		0.00000000		0.00000000	
		0.00000000		8.81910125		0.00000000	
		0.00000000		0.00000000		4.79168694	
PRIMCOORD
   80 1	
Mg		6.86107767		5.76857458		4.15103769		-0.00012293		 0.00062959		 0.00008532	
Mg		11.37192172		3.05052666		0.64064743		 0.00012293		-0.00062959		-0.00008532	
Mg		2.25542203		3.05052666		1.75519422		 0.00012293		-0.00062959		 0.00008532	
Mg		15.97757737		5.76857458		3.03649090		-0.00012293		 0.00062959		-0.00008532	
Mg		11.37192172		1.35902214		3.03649090		 0.00012293		 0.00062959		-0.00008532	
Mg		6.86107767		7.46007729		1.75519422		-0.00012293		-0.00062959		 0.00008532	
Mg		15.97757737		7.46007729		0.64064743		-0.00012293		-0.00062959		-0.00008532	
Mg		2.25542203		1.35902214		4.15103769		 0.00012293		 0.00062959		 0.00008532	
Mg		6.87201747		4.29666648		1.71973650		 0.00033106		-0.00015830		 0.00044530	
Mg		11.36098192		4.52243295		3.07194861		-0.00033106		 0.00015830		-0.00044530	
Mg		2.24448223		4.52243295		4.11557815		-0.00033106		 0.00015830		 0.00044530	
Mg		15.98851717		4.29666648		0.67610697		 0.00033106		-0.00015830		-0.00044530	
Mg		11.36098192		8.70621528		0.67610697		-0.00033106		-0.00015830		-0.00044530	
Mg		6.87201747		0.11288415		4.11557815		 0.00033106		 0.00015830		 0.00044530	
Mg		15.98851717		0.11288415		3.07194861		 0.00033106		 0.00015830		-0.00044530	
Mg		2.24448223		8.70621528		1.71973650		-0.00033106		-0.00015830		 0.00044530	
Si		4.95025934		3.01436880		0.24245878		-0.00018240		 0.00026093		-0.00047192	
Si		13.28274006		5.80473244		4.54922634		 0.00018240		-0.00026093		 0.00047192	
Si		4.16624036		5.80473244		2.63830225		 0.00018240		-0.00026093		-0.00047192	
Si		14.06675903		3.01436880		2.15338287		-0.00018240		 0.00026093		 0.00047192	
Si		13.28274006		7.42391760		2.15338287		 0.00018240		 0.00026093		 0.00047192	
Si		4.95025934		1.39518182		2.63830225		-0.00018240		-0.00026093		-0.00047192	
Si		14.06675903		1.39518182		4.54922634		-0.00018240		-0.00026093		 0.00047192	
Si		4.16624036		7.42391760		0.24245878		 0.00018240		 0.00026093		-0.00047192	
Si		8.63514851		2.97556351		3.82424399		-0.00015103		 0.00039825		-0.00027054	
Si		9.59785088		5.84353591		0.96744112		 0.00015103		-0.00039825		 0.00027054	
Si		0.48135118		5.84353591		1.42840052		 0.00015103		-0.00039825		-0.00027054	
Si		17.75164821		2.97556351		3.36328459		-0.00015103		 0.00039825		 0.00027054	
Si		9.59785088		7.38511413		3.36328459		 0.00015103		 0.00039825		 0.00027054	
Si		8.63514851		1.43398529		1.42840052		-0.00015103		-0.00039825		-0.00027054	
Si		17.75164821		1.43398529		0.96744112		-0.00015103		-0.00039825		 0.00027054	
Si		0.48135118		7.38511413		3.82424399		 0.00015103		 0.00039825		-0.00027054	
O		3.34575539		3.00466702		0.16291732		 0.00013202		 0.00036285		-0.00070658	
O		14.88724401		5.81443240		4.62876780		-0.00013202		-0.00036285		 0.00070658	
O		5.77074431		5.81443240		2.55876079		-0.00013202		-0.00036285		-0.00070658	
O		12.46225509		3.00466702		2.23292433		 0.00013202		 0.00036285		 0.00070658	
O		14.88724401		7.41421765		2.23292433		-0.00013202		 0.00036285		 0.00070658	
O		3.34575539		1.40488360		2.55876079		 0.00013202		-0.00036285		-0.00070658	
O		12.46225509		1.40488360		4.62876780		 0.00013202		-0.00036285		 0.00070658	
O		5.77074431		7.41421765		0.16291732		-0.00013202		 0.00036285		-0.00070658	
O		5.67775601		4.43512605		0.20604201		 0.00012003		-0.00022564		-0.00003185	
O		12.55524338		4.38397519		4.58564311		-0.00012003		 0.00022564		 0.00003185	
O		3.43874369		4.38397519		2.60188548		-0.00012003		 0.00022564		-0.00003185	
O		14.79425571		4.43512605		2.18979964		 0.00012003		-0.00022564		 0.00003185	
O		12.55524338		0.02557543		2.18979964		-0.00012003		-0.00022564		 0.00003185	
O		5.67775601		8.79352399		2.60188548		 0.00012003		 0.00022564		-0.00003185	
O		14.79425571		8.79352399		4.58564311		 0.00012003		 0.00022564		 0.00003185	
O		3.43874369		0.02557543		0.20604201		-0.00012003		-0.00022564		-0.00003185	
O		5.51548232		1.96136750		3.98668178		 0.00009444		 0.00039940		-0.00032089	
O		12.71751708		6.85773192		0.80500333		-0.00009444		-0.00039940		 0.00032089	
O		3.60101738		6.85773192		1.59084014		-0.00009444		-0.00039940		-0.00032089	
O		14.63198202		1.96136750		3.20084680		 0.00009444		 0.00039940		 0.00032089	
O		12.71751708		6.37091813		3.20084680		-0.00009444		 0.00039940		 0.00032089	
O		5.51548232		2.44818129		1.59084014		 0.00009444		-0.00039940		-0.00032089	
O		14.63198202		2.44818129		0.80500333		 0.00009444		-0.00039940		 0.00032089	
O		3.60101738		6.37091813		3.98668178		-0.00009444		 0.00039940		-0.00032089	
O		10.25059226		3.01084072		3.82376446		-0.00054725		 0.00020360		-0.00016538	
O		7.98240714		5.80825871		0.96792065		 0.00054725		-0.00020360		 0.00016538	
O		17.09890683		5.80825871		1.42792282		 0.00054725		-0.00020360		-0.00016538	
O		1.13409256		3.01084072		3.36376230		-0.00054725		 0.00020360		 0.00016538	
O		7.98240714		7.42039134		3.36376230		 0.00054725		 0.00020360		 0.00016538	
O		10.25059226		1.39870808		1.42792282		-0.00054725		-0.00020360		-0.00016538	
O		1.13409256		1.39870808		0.96792065		-0.00054725		-0.00020360		 0.00016538	
O		17.09890683		7.42039134		3.82376446		 0.00054725		 0.00020360		-0.00016538	
O		7.88394894		4.26491735		3.30626271		-0.00012090		-0.00017341		-0.00038461	
O		10.34905046		4.55418207		1.48542240		 0.00012090		 0.00017341		 0.00038461	
O		1.23255076		4.55418207		0.91041924		 0.00012090		 0.00017341		-0.00038461	
O		17.00044864		4.26491735		3.88126405		-0.00012090		-0.00017341		 0.00038461	
O		10.34905046		8.67446615		3.88126405		 0.00012090		-0.00017341		 0.00038461	
O		7.88394894		0.14463327		0.91041924		-0.00012090		 0.00017341		-0.00038461	
O		17.00044864		0.14463327		1.48542240		-0.00012090		 0.00017341		 0.00038461	
O		1.23255076		8.67446615		3.30626271		 0.00012090		-0.00017341		-0.00038461	
O		8.17385363		1.72060622		2.88938524		 0.00035832		 0.00043638		 0.00036101	
O		10.05914577		7.09849320		1.90229806		-0.00035832		-0.00043638		-0.00036101	
O		0.94264607		7.09849320		0.49354359		-0.00035832		-0.00043638		 0.00036101	
O		17.29035333		1.72060622		4.29814153		 0.00035832		 0.00043638		-0.00036101	
O		10.05914577		6.13015684		4.29814153		-0.00035832		 0.00043638		-0.00036101	
O		8.17385363		2.68894441		0.49354359		 0.00035832		-0.00043638		 0.00036101	
O		17.29035333		2.68894441		1.90229806		 0.00035832		-0.00043638		-0.00036101	
O		0.94264607		6.13015684		2.88938524		-0.00035832		 0.00043638		 0.00036101	
