# total energy = -12335.8009657 eV

CRYSTAL
PRIMVEC
		2.46199927		0.19695945		0.00000000
		0.64423979		8.05299987		0.00000000
		0.00000000		0.00000000		6.10800032
PRIMECORD
   20 1
O		0.04702995		0.58786906		1.52699996		 0.00018105		 0.00036262		 0.00000913
O		0.59721108		7.46513081		4.58099987		-0.00018105		-0.00036262		-0.00000913
O		1.60014898		4.71284896		1.52699996		 0.00018098		 0.00036272		 0.00000918
O		1.50609007		3.53711085		4.58099987		-0.00018098		-0.00036272		-0.00000918
O		0.23385900		2.92323904		2.69362797		-0.00022044		 0.00000483		 0.00062558
O		0.41038104		5.12976083		3.41437186		 0.00022044		-0.00000483		-0.00062558
O		0.41038104		5.12976083		5.74762789		 0.00021166		 0.00000980		 0.00061774
O		0.23385900		2.92323904		0.36037194		-0.00021166		-0.00000980		-0.00061774
O		1.78697902		7.04821994		2.69362797		-0.00022053		 0.00000494		 0.00062571
O		1.31926103		1.20174086		3.41437186		 0.00022053		-0.00000494		-0.00062571
O		1.31926103		1.20174086		5.74762789		 0.00021178		 0.00000968		 0.00061784
O		1.78697902		7.04821994		0.36037194		-0.00021178		-0.00000968		-0.00061784
Si		0.00000000		0.00000000		0.00000000		0.00000000		0.00000000		0.00000000
Si		0.00000000		0.00000000		3.05399991		0.00000000		0.00000000		0.00000000
Si		1.55312002		4.12497991		0.00000000		0.00000000		0.00000000		0.00000000
Si		1.55312002		4.12497991		3.05399991		0.00000000		0.00000000		0.00000000
Mg		0.16299311		2.03740908		4.58099987		-0.00066280		-0.00067723		-0.00000766
Mg		0.48124693		6.01559079		1.52699996		 0.00066280		 0.00067723		 0.00000766
Mg		1.71611289		6.16238998		4.58099987		-0.00066271		-0.00067747		-0.00000769
Mg		1.39012691		2.08757107		1.52699996		 0.00066271		 0.00067747		 0.00000769
