# total energy = -12329.5684251 eV

CRYSTAL
PRIMVEC
		2.46200034		-0.29543945		0.00000000
		-0.96635938		8.05300059		0.00000000
		0.00000000		0.00000000		6.10800007
PRIMECORD
   20 1
O		-0.07054393		0.58786908		1.52700002		 0.00004318		 0.00066212		 0.00004962
O		-0.89581594		7.46513077		4.58099980		-0.00004318		-0.00066212		-0.00004962
O		0.67727605		4.46664890		1.52700002		 0.00004315		 0.00066203		 0.00004959
O		0.81836392		3.29091100		4.58099980		-0.00004315		-0.00066203		-0.00004959
O		-0.35078899		2.92323897		2.69362789		 0.00033168		 0.00040948		 0.00002287
O		-0.61557088		5.12976087		3.41437193		-0.00033168		-0.00040948		-0.00002287
O		-0.61557088		5.12976087		5.74762792		-0.00022846		-0.00027591		-0.00001766
O		-0.35078899		2.92323897		0.36037190		 0.00022846		 0.00027591		 0.00001766
O		0.39703099		6.80201979		2.69362789		 0.00033167		 0.00040945		 0.00002286
O		1.09860898		0.95554085		3.41437193		-0.00033167		-0.00040945		-0.00002286
O		1.09860898		0.95554085		5.74762792		-0.00022840		-0.00027584		-0.00001773
O		0.39703099		6.80201979		0.36037190		 0.00022840		 0.00027584		 0.00001773
Si		0.00000000		0.00000000		0.00000000		0.00000000		0.00000000		0.00000000
Si		0.00000000		0.00000000		3.05400003		0.00000000		0.00000000		0.00000000
Si		0.74781998		3.87877983		0.00000000		0.00000000		0.00000000		0.00000000
Si		0.74781998		3.87877983		3.05400003		0.00000000		0.00000000		0.00000000
Mg		-0.24448907		2.03740888		4.58099980		-0.00011591		 0.00008815		 0.00003693
Mg		-0.72187105		6.01559096		1.52700002		 0.00011591		-0.00008815		-0.00003693
Mg		0.50333092		5.91618995		4.58099980		-0.00011583		 0.00008823		 0.00003692
Mg		0.99230905		1.84137094		1.52700002		 0.00011583		-0.00008823		-0.00003692
