# total energy = -24712.3118715 eV

CRYSTAL
PRIMVEC
		9.68100150		0.00000000		1.16171784
		0.00000000		8.73900039		0.00000000
		2.20783430		0.00000000		5.13887927
PRIMECORD
   40 1
Si		2.47678399		3.58298958		1.27687460		 0.00004646		 0.00012056		-0.00008227
Si		9.41204693		5.15600984		5.02372056		-0.00004646		-0.00012056		 0.00008227
Si		3.46763098		7.95248977		1.87342298		-0.00004646		 0.00012056		 0.00008227
Si		8.42119897		0.78650965		4.42717316		 0.00004646		-0.00012056		-0.00008227
Si		8.30813075		3.58298958		2.45428287		-0.00008139		-0.00033137		 0.00012673
Si		3.58069919		5.15600984		3.84631326		 0.00008139		 0.00033137		-0.00012673
Si		7.31728377		7.95248977		1.85773547		 0.00008139		-0.00033137		-0.00012673
Si		4.57154715		0.78650965		4.44286066		-0.00008139		 0.00033137		 0.00012673
O		4.09318305		3.67037997		0.97857604		-0.00016532		 0.00007331		-0.00039739
O		7.79564689		5.06862140		5.32202107		 0.00016532		-0.00007331		 0.00039739
O		1.85123192		8.03988016		2.17172252		 0.00016532		 0.00007331		 0.00039739
O		10.03759803		0.69912023		4.12887362		-0.00016532		-0.00007331		-0.00039739
O		8.69606719		2.18475010		1.81848404		-0.00000600		 0.00005718		-0.00050008
O		3.19276276		6.55425029		4.48211209		 0.00000600		-0.00005718		 0.00050008
O		6.92934831		6.55425029		2.49353430		 0.00000600		 0.00005718		 0.00050008
O		4.95948164		2.18475010		3.80706183		-0.00000600		-0.00005718		-0.00050008
O		3.54958939		4.28210980		5.05618957		-0.00040161		-0.00007739		 0.00017694
O		8.33924153		4.45688961		1.24440559		 0.00040161		 0.00007739		-0.00017694
O		4.60265695		8.65161000		3.23298435		 0.00040161		-0.00007739		-0.00017694
O		7.28617300		0.08739039		3.06761178		-0.00040161		 0.00007739		 0.00017694
O		9.44315673		4.28210980		3.81384425		 0.00006699		 0.00003936		-0.00038266
O		2.44567420		4.45688961		2.48675188		-0.00006699		-0.00003936		 0.00038266
O		8.39008917		8.65161000		5.63705044		-0.00006699		 0.00003936		 0.00038266
O		3.49874078		0.08739039		0.66354569		 0.00006699		-0.00003936		-0.00038266
O		2.08884756		2.18475010		1.91267440		 0.00002892		 0.00019813		-0.00065247
O		9.79998239		6.55425029		4.38792173		-0.00002892		-0.00019813		 0.00065247
O		3.85556742		6.55425029		1.23762415		-0.00002892		 0.00019813		 0.00065247
O		8.03326253		2.18475010		5.06297198		 0.00002892		-0.00019813		-0.00065247
O		6.69173169		3.67037997		2.75258339		-0.00002413		-0.00063596		 0.00041906
O		5.19709825		5.06862140		3.54801372		 0.00002413		 0.00063596		-0.00041906
O		8.93368283		8.03988016		1.55943593		 0.00002413		-0.00063596		-0.00041906
O		2.95514712		0.69912023		4.74116117		-0.00002413		 0.00063596		 0.00041906
Mg		0.55195760		0.79524898		1.28471884		-0.00065128		 0.00005892		 0.00014812
Mg		1.65587280		7.94375141		3.85415653		 0.00065128		-0.00005892		-0.00014812
Mg		5.39245835		5.16474917		1.86557874		 0.00065128		 0.00005892		-0.00014812
Mg		6.49637257		3.57425122		4.43501740		-0.00065128		-0.00005892		 0.00014812
Mg		0.44156588		6.02990988		1.02777488		-0.00000467		-0.00000355		 0.00047993
Mg		1.76626354		2.70908954		4.11110049		 0.00000467		 0.00000355		-0.00047993
Mg		5.50284909		1.66040968		2.12252270		 0.00000467		-0.00000355		-0.00047993
Mg		6.38598086		7.07858973		4.17807343		-0.00000467		 0.00000355		 0.00047993
