# total energy = -24708.7781927 eV

CRYSTAL
PRIMVEC
		9.68100360		0.00000000		1.54896489
		0.00000000		8.73900283		0.00000000
		2.40564029		0.00000000		5.20345573
PRIMECORD
   40 1
Si		2.51654269		3.58299028		1.37117575		-0.00020189		 0.00011737		 0.00032557
Si		9.57009434		5.15600961		5.38123703		 0.00020189		-0.00011737		-0.00032557
Si		3.52677534		7.95248973		2.00503064		 0.00020189		 0.00011737		-0.00032557
Si		8.55986072		0.78651016		4.74738214		-0.00020189		-0.00011737		 0.00032557
Si		8.36727518		3.58299028		2.77951113		-0.00010841		-0.00004925		-0.00009119
Si		3.71936087		5.15600961		3.97290166		 0.00010841		 0.00004925		 0.00009119
Si		7.35704253		7.95248973		2.14565623		 0.00010841		-0.00004925		 0.00009119
Si		4.72959352		0.78651016		4.60675655		-0.00010841		 0.00004925		-0.00009119
O		4.11296351		3.67038040		1.13992859		-0.00039343		-0.00036965		 0.00030324
O		7.97367254		5.06862144		5.61248321		 0.00039343		 0.00036965		-0.00030324
O		1.93035354		8.03987986		2.23627682		 0.00039343		-0.00036965		-0.00030324
O		10.15628055		0.69912003		4.51613596		-0.00039343		 0.00036965		 0.00030324
O		8.72751827		2.18475022		2.16255170		-0.00046072		-0.00013012		-0.00070081
O		3.35911779		6.55424967		4.58986010		 0.00046072		 0.00013012		 0.00070081
O		6.99680042		6.55424967		2.76261370		 0.00046072		-0.00013012		 0.00070081
O		5.08983563		2.18475022		3.98979908		-0.00046072		 0.00013012		-0.00070081
O		3.73750539		4.28211031		5.17562376		-0.00003175		 0.00027302		 0.00025221
O		8.34913165		4.45688958		1.57678902		 0.00003175		-0.00027302		-0.00025221
O		4.71144999		8.65160976		3.40403542		 0.00003175		 0.00027302		-0.00025221
O		7.37518606		0.08739013		3.34837834		-0.00003175		-0.00027302		 0.00025221
O		9.55194983		4.28211031		4.17851493		 0.00090763		-0.00016860		-0.00050630
O		2.53468622		4.45688958		2.57389785		-0.00090763		 0.00016860		 0.00050630
O		8.57800425		8.65160976		5.95010424		-0.00090763		-0.00016860		 0.00050630
O		3.50863181		0.08739013		0.80230854		 0.00090763		 0.00016860		-0.00050630
O		2.15629960		2.18475022		1.98813420		 0.00032673		 0.00002088		-0.00015892
O		9.93033645		6.55424967		4.76427858		-0.00032673		-0.00002088		 0.00015892
O		3.88701842		6.55424967		1.38807317		-0.00032673		 0.00002088		 0.00015892
O		8.19961763		2.18475022		5.36433961		 0.00032673		-0.00002088		-0.00015892
O		6.77085534		3.67038040		3.01075731		 0.00055064		 0.00042153		 0.00081291
O		5.31578169		5.06862144		3.74165646		-0.00055064		-0.00042153		-0.00081291
O		8.95346335		8.03987986		1.91440907		-0.00055064		 0.00042153		-0.00081291
O		3.13317270		0.69912003		4.83800273		 0.00055064		-0.00042153		 0.00081291
Mg		0.60140909		0.79524858		1.30086344		-0.00059989		-0.00048950		 0.00032617
Mg		1.80422728		7.94375131		3.90259033		 0.00059989		 0.00048950		-0.00032617
Mg		5.44190893		5.16474901		2.07534295		 0.00059989		-0.00048950		-0.00032617
Mg		6.64472712		3.57425087		4.67706983		-0.00059989		 0.00048950		 0.00032617
Mg		0.48112708		6.02990989		1.04069115		-0.00042313		-0.00015000		 0.00041639
Mg		1.92450929		2.70908999		4.16276165		 0.00042313		 0.00015000		-0.00041639
Mg		5.56219095		1.66041044		2.33551622		 0.00042313		-0.00015000		-0.00041639
Mg		6.52444510		7.07859043		4.41689656		-0.00042313		 0.00015000		 0.00041639
