# total energy = -7715.81997728 eV

CRYSTAL
PRIMVEC
		4.44601877		0.00000000		0.00000000
		0.00000000		4.44601877		0.00000000
		0.00000000		0.00000000		4.44601877
PRIMECORD
   8 1
Ca		0.00000000		0.00000000		0.00000000		0.00000000		0.00000000		0.00000000
Mg		0.00000000		2.22300983		2.22300983		0.00000000		0.00000000		0.00000000
Mg		2.22300983		0.00000000		2.22300983		0.00000000		0.00000000		0.00000000
Mg		2.22300983		2.22300983		0.00000000		0.00000000		0.00000000		0.00000000
O		0.00000000		0.00000000		2.22300983		0.00000000		0.00000000		0.00000000
O		2.22300983		0.00000000		0.00000000		0.00000000		0.00000000		0.00000000
O		0.00000000		2.22300983		0.00000000		0.00000000		0.00000000		0.00000000
O		2.22300983		2.22300983		2.22300983		0.00000000		0.00000000		0.00000000
