# total energy = -18278.3304852 eV	

CRYSTAL	
PRIMVEC	
		5.26425758		0.00024012		-0.00129131	
		-2.63220616		4.81895770		0.00068834	
		-0.00381524		-0.00084842		12.61746849	
PRIMCOORD
   28 1	
Mg		1.96426435		0.00037992		3.06175310		-0.00050996		-0.00000001		-0.00011924	
Mg		-0.73935191		1.86355001		2.95985898		 0.00053355		-0.00031533		 0.00023293	
Mg		1.89223048		2.95538208		2.96080292		 0.00060251		 0.00034327		 0.00006331	
Mg		3.29773344		-0.00045730		9.36952206		 0.00035656		 0.00005447		-0.00005229	
Mg		-1.89552119		2.95434316		9.27034130		-0.00040615		 0.00044431		 0.00011359	
Mg		0.73609161		1.86329869		9.26811672		-0.00049517		-0.00044186		 0.00030070	
Si		0.02348854		3.25810083		0.12482452		 0.00048831		 0.00000603		-0.00036225	
Si		2.60608537		1.56040011		6.43318524		-0.00057934		-0.00003302		-0.00038872	
Si		-0.02703911		3.25760405		6.43380315		-0.00050479		 0.00000164		-0.00039678	
Si		2.65498288		1.56120051		0.12429038		 0.00059084		-0.00003874		-0.00039287	
O		0.04821236		3.28130016		1.74148794		 0.00029250		 0.00018748		-0.00058626	
O		2.58327451		1.53642226		8.04984867		-0.00046609		-0.00011588		-0.00061399	
O		-0.05180349		3.28113955		8.05042816		-0.00030589		 0.00006586		-0.00060754	
O		2.67854879		1.53798517		1.74100984		 0.00044330		-0.00027528		-0.00064060	
O		2.71055465		-0.00065419		12.16621203		 0.00010864		-0.00003410		 0.00086505	
O		-1.37685184		2.53243043		12.25259120		 0.00054095		 0.00001952		 0.00009587	
O		1.25517770		2.28484856		12.25011049		 0.00060200		 0.00003204		 0.00029121	
O		2.54676880		-0.00045623		5.85750660		-0.00013566		-0.00002473		 0.00080965	
O		-1.26231513		2.28457803		5.94216544		-0.00057673		 0.00005421		 0.00025685	
O		1.36984834		2.53345174		5.94459066		-0.00052543		-0.00003508		-0.00008489	
O		4.00943793		0.00034791		3.48503985		 0.00035583		 0.00001415		-0.00003142	
O		-1.64528733		3.31220147		3.76523642		 0.00021841		 0.00078517		 0.00027972	
O		0.98664296		1.50689550		3.76627000		 0.00016012		-0.00081762		 0.00011744	
O		1.25190566		-0.00048771		9.79340111		-0.00031210		 0.00005327		-0.00008564	
O		-0.98906284		1.50581549		10.07558480		-0.00022174		-0.00071765		 0.00003697	
O		1.64276500		3.31157075		10.07316332		-0.00028600		 0.00075319		 0.00022143	
O		-0.43666410		-0.00048664		2.31524989		 0.00085371		 0.00007903		 0.00024638	
O		0.43319356		-0.00058002		8.62270936		-0.00082218		-0.00004435		 0.00043139	
