# total energy = -18386.0527666 eV	

CRYSTAL	
PRIMVEC	
		4.81499975		0.00000000		0.00000000	
		0.00000000		11.07999815		-1.32959959	
		0.00000000		-0.76440047		6.36999910	
PRIMCOORD
   28 1	
Mg		0.00000000		0.00000000		0.00000000		0.00000000		0.00000000		0.00000000	
Mg		2.40749987		5.53999956		-0.66479979		-0.00000000		-0.00000000		-0.00000000	
Mg		0.00000000		-0.38219975		3.18500003		0.00000000		0.00000000		0.00000000	
Mg		2.40749987		5.15779980		2.52019976		0.00000000		0.00000000		0.00000000	
Ca		4.73314475		2.65645992		1.25079297		-0.00037874		-0.00069639		-0.00071246	
Ca		0.08185500		7.65913969		3.78960703		 0.00037874		 0.00069639		 0.00071246	
Ca		2.32564488		2.11913965		4.45440682		-0.00037874		 0.00069639		 0.00071246	
Ca		2.48935487		8.19645947		0.58599317		 0.00037874		-0.00069639		-0.00071246	
Si		1.94044490		0.76178015		1.47815388		-0.00004635		 0.00005860		 0.00056038	
Si		2.87455485		9.55381946		3.56224563		 0.00004635		-0.00005860		-0.00056038	
Si		4.34794477		4.01381990		4.22704591		-0.00004635		-0.00005860		-0.00056038	
Si		0.46705498		6.30177970		0.81335409		 0.00004635		 0.00005860		 0.00056038	
O		3.67865981		0.55126017		1.50341674		-0.00031279		 0.00073422		 0.00054383	
O		1.13633994		9.76433943		3.53698277		 0.00031279		-0.00073422		-0.00054383	
O		1.27115993		4.22433988		4.20178257		-0.00031279		-0.00073422		-0.00054383	
O		3.54383981		6.09125973		0.83861695		 0.00031279		 0.00073422		 0.00054383	
O		3.54383981		4.95001956		0.97556614		 0.00009297		 0.00006215		 0.00056506	
O		1.27115993		5.36557956		4.06483386		-0.00009297		-0.00006215		-0.00056506	
O		1.13633994		-0.17442000		4.72963365		 0.00009297		-0.00006215		-0.00056506	
O		3.67865981		10.49001960		0.31076586		-0.00009297		 0.00006215		 0.00056506	
O		1.20374994		1.67230767		-0.01232881		-0.00049017		 0.00029552		 0.00031994	
O		3.61124981		8.64329145		5.05272880		 0.00049017		-0.00029552		-0.00031994	
O		3.61124981		3.10329189		5.71752860		-0.00049017		-0.00029552		-0.00031994	
O		1.20374994		7.21230771		-0.67712908		 0.00049017		 0.00029552		 0.00031994	
O		3.61124981		8.97962737		2.24992901		-0.00000727		-0.00012464		 0.00033190	
O		1.20374994		1.33597176		2.79047099		 0.00000727		 0.00012464		-0.00033190	
O		1.20374994		6.87597179		2.12567072		-0.00000727		 0.00012464		-0.00033190	
O		3.61124981		3.43962781		2.91472880		 0.00000727		-0.00012464		 0.00033190	
