# total energy = -8762.1429614 eV	

CRYSTAL	
PRIMVEC	
		3.04800034		0.00000000		-0.36575930	
		-1.52399864		2.63964663		0.18288119	
		-1.48343955		0.00000000		12.36199833	
PRIMCOORD
   11 1	
H		-0.69677201		1.75976381		5.80643180		 0.00006593		 0.00018470		-0.00025580	
H		0.73733202		0.87988190		6.37268872		-0.00006593		-0.00018470		 0.00025580	
Mg		-1.03647981		0.00000000		8.63732961		-0.00005858		 0.00009983		-0.00041926	
Mg		-0.44696005		0.00000000		3.72467087		 0.00005858		-0.00009983		 0.00041926	
Mg		0.18875599		0.87988190		10.94415631		-0.00019762		 0.00005869		 0.00033600	
Mg		-0.14819599		1.75976381		1.23496390		 0.00019762		-0.00005869		-0.00033600	
O		1.22760881		0.87988190		2.28704785		 0.00020845		-0.00038896		 0.00015237	
O		-1.18704881		1.75976381		9.89207236		-0.00020845		 0.00038896		-0.00015237	
O		-0.57794790		1.75976381		4.81623484		-0.00021018		 0.00013525		 0.00044833	
O		0.61850790		0.87988190		7.36288476		 0.00021018		-0.00013525		-0.00044833	
O		0.00000000		0.00000000		0.00000000		0.00000000		0.00000000		0.00000000	
