# total energy = -20635.9865287 eV	

CRYSTAL	
PRIMVEC	
		4.74599980		0.00000000		0.00000000	
		0.00000000		10.17999872		1.22160137	
		0.00000000		0.71712057		5.97600159	
PRIMCOORD
   28 1	
Si		2.02227004		1.13518193		1.60870789		 0.00025251		 0.00031479		-0.00020014	
Si		2.72372881		9.76193736		5.58889174		-0.00025251		-0.00031479		 0.00020014	
Si		4.39527089		4.67193800		4.97809201		 0.00025251		-0.00031479		 0.00020014	
Si		0.35072891		6.22518176		2.21950810		-0.00025251		 0.00031479		-0.00020014	
Mg		0.00000000		0.00000000		0.00000000		0.00000000		0.00000000		0.00000000	
Mg		2.37299990		5.08999984		0.61080021		0.00000000		0.00000000		0.00000000	
Mg		0.00000000		0.35855981		2.98799984		0.00000000		0.00000000		0.00000000	
Mg		2.37299990		5.44855965		3.59880005		0.00000000		0.00000000		0.00000000	
Mg		4.70518373		3.00117569		1.83262796		-0.00039847		 0.00032384		-0.00071880	
Mg		0.04081607		7.89594360		5.36497167		 0.00039847		-0.00032384		 0.00071880	
Mg		2.33218383		2.80594377		4.75417194		-0.00039847		-0.00032384		 0.00071880	
Mg		2.41381503		8.09117552		2.44342674		 0.00039847		 0.00032384		-0.00071880	
O		3.63590997		1.11482206		1.60626512		 0.00047378		-0.00019161		 0.00041610	
O		1.11008888		9.78229770		5.59133498		-0.00047378		 0.00019161		-0.00041610	
O		1.26291102		4.69229787		4.98053477		 0.00047378		 0.00019161		-0.00041610	
O		3.48308878		6.20482190		2.21706486		-0.00047378		-0.00019161		 0.00041610	
O		1.04506916		4.72872199		2.03993275		 0.00005049		 0.00034724		-0.00014934	
O		3.70093065		6.16839778		5.15766688		-0.00005049		-0.00034724		 0.00014934	
O		3.41806906		1.07839794		4.54686667		 0.00005049		-0.00034724		 0.00014934	
O		1.32793074		9.81872183		2.65073296		-0.00005049		 0.00034724		-0.00014934	
O		1.31796415		1.68118405		0.39787710		-0.00022951		-0.00048702		-0.00004541	
O		3.42803566		9.21593571		6.79972253		 0.00022951		 0.00048702		 0.00004541	
O		3.69096405		4.12593588		6.18892280		-0.00022951		 0.00048702		 0.00004541	
O		1.05503576		6.77118389		1.00867683		 0.00022951		-0.00048702		-0.00004541	
O		3.42803566		8.90513585		4.20972366		-0.00022733		-0.00002840		 0.00017663	
O		1.31796415		1.99198392		2.98787597		 0.00022733		 0.00002840		-0.00017663	
O		1.05503576		7.08198375		3.59867571		-0.00022733		 0.00002840		-0.00017663	
O		3.69096405		3.81513601		3.59892392		 0.00022733		-0.00002840		 0.00017663	
