# total energy = -66814.6155108 eV

CRYSTAL
PRIMVEC
		18.34339846		0.00000000		0.00000000
		0.00000000		6.56301116		0.00000000
		0.00000000		0.00000000		10.88440400
PRIMECORD
   112 1
Ca		14.17192622		6.55599481		2.52060857		 0.00026647		-0.00003444		-0.00031424
Ca		4.17147224		0.00702369		8.36378993		-0.00026647		 0.00003444		 0.00031424
Ca		4.17147224		0.00702369		2.52060857		-0.00026647		 0.00003444		-0.00031424
Ca		14.17192622		6.55599481		8.36378993		 0.00026647		-0.00003444		 0.00031424
Ca		13.34317147		3.27448556		2.92159159		-0.00026647		-0.00003444		 0.00031424
Ca		5.00022699		3.28853110		7.96281057		 0.00026647		 0.00003444		-0.00031424
Ca		5.00022699		3.28853110		2.92159159		 0.00026647		 0.00003444		 0.00031424
Ca		13.34317147		3.27448556		7.96281057		-0.00026647		-0.00003444		-0.00031424
Ca		7.55546239		1.03807126		8.14849713		 0.00004063		 0.00004174		 0.00004165
Ca		10.78793607		5.52494540		2.73590321		-0.00004063		-0.00004174		-0.00004165
Ca		10.78793607		5.52494540		8.14849713		-0.00004063		-0.00004174		 0.00004165
Ca		7.55546239		1.03807126		2.73590321		 0.00004063		 0.00004174		-0.00004165
Ca		1.61623684		4.31958051		8.17810337		-0.00004063		 0.00004174		-0.00004165
Ca		16.72716162		2.24343615		2.70629696		 0.00004063		-0.00004174		 0.00004165
Ca		16.72716162		2.24343615		8.17810337		 0.00004063		-0.00004174		-0.00004165
Ca		1.61623684		4.31958051		2.70629696		-0.00004063		 0.00004174		 0.00004165
Ca		6.10413271		5.26878901		0.00000000		 0.00004636		-0.00078306		-0.00000000
Ca		12.23926575		1.29422765		0.00000000		-0.00004636		 0.00078306		-0.00000000
Ca		3.06756652		1.98728160		5.44220017		-0.00004636		-0.00078306		0.00000000
Ca		15.27583194		4.57573507		5.44220017		 0.00004636		 0.00078306		0.00000000
Ca		12.35024332		1.12752651		5.44220017		 0.00013823		-0.00000838		0.00000000
Ca		5.99315515		5.43549015		5.44220017		-0.00013823		 0.00000838		0.00000000
Ca		15.16485438		4.40903576		0.00000000		-0.00013823		-0.00000838		0.00000000
Ca		3.17854409		2.15398274		0.00000000		 0.00013823		 0.00000838		0.00000000
Ca		9.17169923		3.28150925		0.00000000		0.00000000		0.00000000		-0.00000000
Ca		0.00000000		0.00000000		5.44220017		0.00000000		0.00000000		-0.00000000
Ca		9.17169923		3.28150925		5.44220017		0.00000000		0.00000000		0.00000000
Ca		0.00000000		0.00000000		0.00000000		0.00000000		0.00000000		0.00000000
Si		7.68918577		4.72143484		8.18267455		 0.00002546		-0.00008712		 0.00004273
Si		10.65421086		1.84158365		2.70172579		-0.00002546		 0.00008712		-0.00004273
Si		10.65421086		1.84158365		8.18267455		-0.00002546		 0.00008712		 0.00004273
Si		7.68918577		4.72143484		2.70172579		 0.00002546		-0.00008712		-0.00004273
Si		1.48251346		1.43992560		8.14392595		-0.00002546		-0.00008712		-0.00004273
Si		16.86088500		5.12309107		2.74047438		 0.00002546		 0.00008712		 0.00004273
Si		16.86088500		5.12309107		8.14392595		 0.00002546		 0.00008712		-0.00004273
Si		1.48251346		1.43992560		2.74047438		-0.00002546		-0.00008712		 0.00004273
Si		12.17689820		4.82709832		5.44220017		 0.00014016		-0.00045661		0.00000000
Si		6.16650026		1.73591834		5.44220017		-0.00014016		 0.00045661		0.00000000
Si		15.33819949		1.54558907		0.00000000		-0.00014016		-0.00045661		0.00000000
Si		3.00519897		5.01742759		0.00000000		 0.00014016		 0.00045661		0.00000000
Si		6.20337049		1.85602174		0.00000000		-0.00027739		-0.00013689		-0.00000000
Si		12.14002797		4.70699676		0.00000000		 0.00027739		 0.00013689		-0.00000000
Si		2.96832874		5.13752916		5.44220017		 0.00027739		-0.00013689		0.00000000
Si		15.37506972		1.42548751		5.44220017		-0.00027739		 0.00013689		0.00000000
Mg		9.17169923		0.00000000		5.44220017		0.00000000		0.00000000		0.00000000
Mg		0.00000000		3.28150925		0.00000000		0.00000000		0.00000000		0.00000000
Mg		9.17169923		0.00000000		0.00000000		0.00000000		0.00000000		-0.00000000
Mg		0.00000000		3.28150925		5.44220017		0.00000000		0.00000000		0.00000000
O		5.29573914		1.68669567		1.32789696		-0.00005999		-0.00001716		-0.00000758
O		13.04765933		4.87632100		9.55650337		 0.00005999		 0.00001716		 0.00000758
O		13.04765933		4.87632100		1.32789696		 0.00005999		 0.00001716		-0.00000758
O		5.29573914		1.68669567		9.55650337		-0.00005999		-0.00001716		 0.00000758
O		3.87596009		4.96820308		4.11430321		 0.00005999		-0.00001716		 0.00000758
O		14.46743837		1.59481358		6.77009712		-0.00005999		 0.00001716		-0.00000758
O		14.46743837		1.59481358		4.11430321		-0.00005999		 0.00001716		 0.00000758
O		3.87596009		4.96820308		6.77009712		 0.00005999		-0.00001716		-0.00000758
O		12.78168005		5.56150013		4.13933644		-0.00040060		-0.00006793		 0.00008509
O		5.56171841		1.00151654		6.74506205		 0.00040060		 0.00006793		-0.00008509
O		5.56171841		1.00151654		4.13933644		 0.00040060		 0.00006793		 0.00008509
O		12.78168005		5.56150013		6.74506205		-0.00040060		-0.00006793		-0.00008509
O		14.73341764		2.27999271		1.30286372		 0.00040060		-0.00006793		-0.00008509
O		3.60998082		4.28302579		9.58153661		-0.00040060		 0.00006793		 0.00008509
O		3.60998082		4.28302579		1.30286372		-0.00040060		 0.00006793		-0.00008509
O		14.73341764		2.27999271		9.58153661		 0.00040060		-0.00006793		 0.00008509
O		8.72595465		5.12505932		9.36711512		 0.00009261		-0.00003445		 0.00003490
O		9.61744381		1.43795735		1.51728521		-0.00009261		 0.00003445		-0.00003490
O		9.61744381		1.43795735		9.36711512		-0.00009261		 0.00003445		 0.00003490
O		8.72595465		5.12505932		1.51728521		 0.00009261		-0.00003445		-0.00003490
O		0.44574458		1.84355190		6.95948538		-0.00009261		-0.00003445		-0.00003490
O		17.89765388		4.71946660		3.92491496		 0.00009261		 0.00003445		 0.00003490
O		17.89765388		4.71946660		6.95948538		 0.00009261		 0.00003445		-0.00003490
O		0.44574458		1.84355190		3.92491496		-0.00009261		-0.00003445		 0.00003490
O		6.21712804		5.31670014		8.55731461		 0.00003834		-0.00004104		-0.00008334
O		12.12627042		1.24631653		2.32708572		-0.00003834		 0.00004104		 0.00008334
O		12.12627042		1.24631653		8.55731461		-0.00003834		 0.00004104		-0.00008334
O		6.21712804		5.31670014		2.32708572		 0.00003834		-0.00004104		 0.00008334
O		2.95457119		2.03519272		7.76928405		-0.00003834		-0.00004104		 0.00008334
O		15.38882727		4.52782578		3.11511445		 0.00003834		 0.00004104		-0.00008334
O		15.38882727		4.52782578		7.76928405		 0.00003834		 0.00004104		 0.00008334
O		2.95457119		2.03519272		3.11511445		-0.00003834		-0.00004104		-0.00008334
O		6.89711782		3.25459948		0.00000000		-0.00029267		-0.00001831		-0.00000000
O		11.44628064		3.30841718		0.00000000		 0.00029267		 0.00001831		-0.00000000
O		2.27458141		6.53610873		5.44220017		 0.00029267		-0.00001831		-0.00000000
O		16.06881705		0.02690793		5.44220017		-0.00029267		 0.00001831		-0.00000000
O		7.54830847		3.21259677		7.82697220		-0.00018599		 0.00005367		 0.00026877
O		10.79508999		3.35041989		3.05742813		 0.00018599		-0.00005367		-0.00026877
O		10.79508999		3.35041989		7.82697220		 0.00018599		-0.00005367		 0.00026877
O		7.54830847		3.21259677		3.05742813		-0.00018599		 0.00005367		-0.00026877
O		1.62339076		6.49410602		8.49962829		 0.00018599		 0.00005367		-0.00026877
O		16.72000770		0.06891248		2.38477204		-0.00018599		-0.00005367		 0.00026877
O		16.72000770		0.06891248		8.49962829		-0.00018599		-0.00005367		-0.00026877
O		1.62339076		6.49410602		2.38477204		 0.00018599		 0.00005367		 0.00026877
O		7.29700391		0.68583582		0.00000000		-0.00008378		 0.00038612		-0.00000000
O		11.04639455		5.87718268		0.00000000		 0.00008378		-0.00038612		-0.00000000
O		1.87469532		3.96734324		5.44220017		 0.00008378		 0.00038612		-0.00000000
O		16.46870314		2.59567343		5.44220017		-0.00008378		-0.00038612		-0.00000000
O		10.57313487		5.06533688		5.44220017		 0.00059278		 0.00045824		0.00000000
O		7.77026359		1.49768162		5.44220017		-0.00059278		-0.00045824		0.00000000
O		16.94196282		1.78382763		0.00000000		-0.00059278		 0.00045824		-0.00000000
O		1.40143564		4.77918903		0.00000000		 0.00059278		-0.00045824		-0.00000000
O		12.74132457		3.36420312		5.44220017		-0.00026108		-0.00070505		0.00000000
O		5.60207389		3.19881537		5.44220017		 0.00026108		 0.00070505		0.00000000
O		14.77377312		0.08269387		0.00000000		 0.00026108		-0.00070505		-0.00000000
O		3.56962534		6.48032279		0.00000000		-0.00026108		 0.00070505		-0.00000000
O		8.14997194		5.51949741		6.85281851		-0.00000422		 0.00012015		 0.00050913
O		10.19342652		1.04351925		4.03158182		 0.00000422		-0.00012015		-0.00050913
O		10.19342652		1.04351925		6.85281851		 0.00000422		-0.00012015		 0.00050913
O		8.14997194		5.51949741		4.03158182		-0.00000422		 0.00012015		-0.00050913
O		1.02172729		2.23798816		9.47378198		 0.00000422		 0.00012015		-0.00050913
O		17.32167117		4.32502850		1.41061835		-0.00000422		-0.00012015		 0.00050913
O		17.32167117		4.32502850		9.47378198		-0.00000422		-0.00012015		-0.00050913
O		1.02172729		2.23798816		1.41061835		 0.00000422		 0.00012015		 0.00050913
