# total energy = -41274.3500408 eV

CRYSTAL
PRIMVEC
		5.69780014		0.00000000		0.00000000
		0.00000000		11.46200244		-0.45847919
		0.00000000		-0.33028438		8.25709812
PRIMECORD
   56 1
Mg		0.00000000		0.00000000		0.00000000		0.00000000		0.00000000		0.00000000
Mg		0.00000000		5.73100008		-0.22924016		0.00000000		0.00000000		0.00000000
Mg		2.84890007		5.56585789		3.89931004		0.00000000		0.00000000		0.00000000
Mg		2.84890007		-0.16514219		4.12855020		0.00000000		0.00000000		0.00000000
Mg		0.00000000		2.54519080		7.89311638		0.00000000		-0.00004420		 0.00004647
Mg		0.00000000		8.58652498		-0.09449574		0.00000000		 0.00004420		-0.00004647
Mg		2.84890007		8.44133193		3.53532602		0.00000000		-0.00004419		 0.00004648
Mg		2.84890007		2.69038328		4.26329520		0.00000000		 0.00004419		-0.00004648
Mg		1.42445004		1.37195677		2.00609401		 0.00029773		 0.00018469		-0.00021865
Mg		4.27335011		9.75975901		5.79252607		-0.00029773		-0.00018469		 0.00021865
Mg		4.27335011		4.19390112		1.89321603		 0.00029773		-0.00018469		 0.00021865
Mg		1.42445004		6.93781523		5.90540405		-0.00029773		 0.00018469		-0.00021865
Mg		4.27335011		6.93781523		5.90540405		 0.00029773		 0.00018469		-0.00021865
Mg		1.42445004		4.19390112		1.89321603		-0.00029773		-0.00018469		 0.00021865
Mg		1.42445004		9.75975901		5.79252607		 0.00029773		-0.00018469		 0.00021865
Mg		4.27335011		1.37195677		2.00609401		-0.00029773		 0.00018469		-0.00021865
Si		0.00000000		1.17067401		5.03553116		0.00000000		 0.00021916		-0.00054372
Si		0.00000000		9.96104235		2.76308892		0.00000000		-0.00021916		 0.00054372
Si		0.00000000		4.15308607		4.91623403		0.00000000		 0.00014263		-0.00039486
Si		0.00000000		6.97863029		2.88238604		0.00000000		-0.00014263		 0.00039486
Si		2.84890007		7.06681628		0.67774079		0.00000000		 0.00021916		-0.00054370
Si		2.84890007		4.06490008		7.12088042		0.00000000		-0.00021916		 0.00054370
Si		2.84890007		10.04922834		0.55844424		0.00000000		 0.00014265		-0.00039483
Si		2.84890007		1.08248801		7.24017641		0.00000000		-0.00014265		 0.00039483
O		0.00000000		2.79343199		1.68707931		0.00000000		 0.00023656		-0.00003592
O		0.00000000		8.33828437		6.11154134		0.00000000		-0.00023656		 0.00003592
O		2.84890007		8.35929045		5.58638934		0.00000000		 0.00023656		-0.00003592
O		2.84890007		2.77242591		2.21223130		0.00000000		-0.00023656		 0.00003592
O		0.00000000		2.62911598		5.79498638		0.00000000		 0.00035779		-0.00048793
O		0.00000000		8.50260038		2.00363427		0.00000000		-0.00035779		 0.00048793
O		2.84890007		8.52525825		1.43719601		0.00000000		 0.00035779		-0.00048795
O		2.84890007		2.60645810		6.36142406		0.00000000		-0.00035779		 0.00048795
O		0.00000000		11.26036926		1.66414281		0.00000000		 0.00001401		 0.00066421
O		0.00000000		-0.12865291		6.13447726		0.00000000		-0.00001401		-0.00066421
O		0.00000000		5.76319493		1.88403004		0.00000000		-0.00005748		-0.00053826
O		0.00000000		5.36852085		5.91459004		0.00000000		 0.00005748		 0.00053826
O		2.84890007		5.36422699		6.02193318		0.00000000		 0.00001401		 0.00066422
O		2.84890007		5.76748822		1.77668690		0.00000000		-0.00001401		-0.00066422
O		2.84890007		-0.13294677		6.24182040		0.00000000		-0.00005746		-0.00053825
O		2.84890007		11.26466312		1.55680025		0.00000000		 0.00005746		 0.00053825
O		1.48199782		1.07723578		8.14391645		 0.00025367		 0.00010236		 0.00016765
O		4.21580232		10.05448000		-0.34529580		-0.00025367		-0.00010236		-0.00016765
O		4.21580232		3.99775435		8.02709616		 0.00030458		 0.00032472		 0.00028297
O		1.48199782		7.13396200		-0.22847609		-0.00030458		-0.00032472		-0.00028297
O		4.21580232		7.13396200		-0.22847609		 0.00030458		-0.00032472		-0.00028297
O		1.48199782		3.99775435		8.02709616		-0.00030458		 0.00032472		 0.00028297
O		1.48199782		10.05448000		-0.34529580		 0.00025367		-0.00010236		-0.00016765
O		4.21580232		1.07723578		8.14391645		-0.00025367		 0.00010236		 0.00016765
O		4.33089789		6.97337805		3.78612609		 0.00025368		 0.00010235		 0.00016765
O		1.36690225		4.15833830		4.01249399		-0.00025368		-0.00010235		-0.00016765
O		1.36690225		9.89389548		3.66930637		 0.00030458		 0.00032472		 0.00028297
O		4.33089789		1.23782030		4.12931485		-0.00030458		-0.00032472		-0.00028297
O		1.36690225		1.23782030		4.12931485		 0.00030458		-0.00032472		-0.00028297
O		4.33089789		9.89389548		3.66930637		-0.00030458		 0.00032472		 0.00028297
O		4.33089789		4.15833830		4.01249399		 0.00025368		-0.00010235		-0.00016765
O		1.36690225		6.97337805		3.78612609		-0.00025368		 0.00010235		 0.00016765
