# total energy = -41271.0828199 eV

CRYSTAL
PRIMVEC
		5.69780014		0.00000000		0.00000000
		0.00000000		11.46200244		-0.91695837
		0.00000000		-0.66056876		8.25709812
PRIMECORD
   56 1
Mg		0.00000000		0.00000000		0.00000000		0.00000000		0.00000000		0.00000000
Mg		0.00000000		5.73100008		-0.45847976		0.00000000		0.00000000		0.00000000
Mg		2.84890007		5.40071627		3.67006988		0.00000000		0.00000000		0.00000000
Mg		2.84890007		-0.33028381		4.12855020		0.00000000		0.00000000		0.00000000
Mg		0.00000000		2.22488099		7.77849602		0.00000000		 0.00056600		 0.00003721
Mg		0.00000000		8.57655099		-0.43835627		0.00000000		-0.00056600		-0.00003721
Mg		2.84890007		8.28616545		3.19146606		0.00000000		 0.00056600		 0.00003722
Mg		2.84890007		2.51526709		4.14867483		0.00000000		-0.00056600		-0.00003722
Mg		1.42445004		1.28938596		1.94791320		-0.00022642		-0.00001111		 0.00028610
Mg		4.27335011		9.51204601		5.39222712		 0.00022642		 0.00001111		-0.00028610
Mg		4.27335011		4.11133031		1.72215724		-0.00022642		 0.00001112		-0.00028610
Mg		1.42445004		6.69010223		5.61798308		 0.00022642		-0.00001112		 0.00028610
Mg		4.27335011		6.69010223		5.61798308		-0.00022642		-0.00001112		 0.00028610
Mg		1.42445004		4.11133031		1.72215724		 0.00022642		 0.00001112		-0.00028610
Mg		1.42445004		9.51204601		5.39222712		-0.00022642		 0.00001111		-0.00028610
Mg		4.27335011		1.28938596		1.94791320		 0.00022642		-0.00001111		 0.00028610
Si		0.00000000		0.96705400		4.98055935		0.00000000		-0.00030076		-0.00061889
Si		0.00000000		9.83437797		2.35958097		0.00000000		 0.00030076		 0.00061889
Si		0.00000000		3.94946606		4.74196625		0.00000000		-0.00015958		-0.00016673
Si		0.00000000		6.85196591		2.59817407		0.00000000		 0.00015958		 0.00016673
Si		2.84890007		7.02833732		0.39352882		0.00000000		-0.00030076		-0.00061889
Si		2.84890007		3.77309408		6.94661093		0.00000000		 0.00030076		 0.00061889
Si		2.84890007		10.01075053		0.15493572		0.00000000		-0.00015958		-0.00016673
Si		2.84890007		0.79068202		7.18520403		-0.00000000		 0.00015958		 0.00016673
O		0.00000000		2.72136393		1.57245894		0.00000000		-0.00069997		 0.00035197
O		0.00000000		8.08006804		5.76768138		0.00000000		 0.00069997		-0.00035197
O		2.84890007		8.12208020		5.24252939		0.00000000		-0.00069997		 0.00035196
O		2.84890007		2.67935234		2.09761093		0.00000000		 0.00069997		-0.00035196
O		0.00000000		2.39273134		5.68036601		0.00000000		-0.00053333		 0.00004757
O		0.00000000		8.40870006		1.65977431		-0.00000000		 0.00053333		-0.00004757
O		2.84890007		8.45401524		1.09333605		0.00000000		-0.00053334		 0.00004757
O		2.84890007		2.34741617		6.24680427		-0.00000000		 0.00053334		-0.00004757
O		0.00000000		11.17565209		1.21033924		0.00000000		-0.00089040		-0.00042979
O		0.00000000		-0.37422012		6.12980108		-0.00000000		 0.00089040		 0.00042979
O		0.00000000		5.67847719		1.65011312		-0.00000000		 0.00003455		 0.00029348
O		0.00000000		5.12295535		5.69002720		0.00000000		-0.00003455		-0.00029348
O		2.84890007		5.11436820		5.79736920		0.00000000		-0.00089040		-0.00042979
O		2.84890007		5.68706435		1.54277112		-0.00000000		 0.00089040		 0.00042979
O		2.84890007		-0.38280727		6.23714308		0.00000000		 0.00003454		 0.00029347
O		2.84890007		11.18423924		1.10299724		-0.00000000		-0.00003454		-0.00029347
O		1.48199782		0.74923109		8.08770708		-0.00012549		 0.00032313		 0.00001396
O		4.21580232		10.05220145		-0.74756676		 0.00012549		-0.00032313		-0.00001396
O		4.21580232		3.66974909		7.85406537		 0.00022027		-0.00014432		 0.00048752
O		1.48199782		7.13168345		-0.51392505		-0.00022027		 0.00014432		-0.00048752
O		4.21580232		7.13168345		-0.51392505		 0.00022027		 0.00014432		-0.00048752
O		1.48199782		3.66974909		7.85406537		-0.00022027		-0.00014432		 0.00048752
O		1.48199782		10.05220145		-0.74756676		-0.00012549		-0.00032313		-0.00001396
O		4.21580232		0.74923109		8.08770708		 0.00012549		 0.00032313		 0.00001396
O		4.33089789		6.81051498		3.50067713		-0.00012549		 0.00032313		 0.00001396
O		1.36690225		3.99091699		3.83946319		 0.00012549		-0.00032313		-0.00001396
O		1.36690225		9.73103241		3.26703484		 0.00022028		-0.00014433		 0.00048752
O		4.33089789		1.07039899		4.07310491		-0.00022028		 0.00014433		-0.00048752
O		1.36690225		1.07039899		4.07310491		 0.00022028		 0.00014433		-0.00048752
O		4.33089789		9.73103241		3.26703484		-0.00022028		-0.00014433		 0.00048752
O		4.33089789		3.99091699		3.83946319		-0.00012549		-0.00032313		-0.00001396
O		1.36690225		6.81051498		3.50067713		 0.00012549		 0.00032313		 0.00001396
