# total energy = -20638.8206485 eV	

CRYSTAL	
PRIMVEC	
		10.20140980		0.00000000		0.00000000	
		0.00000000		5.98348390		0.00000000	
		0.00000000		0.00000000		4.87422340	
PRIMCOORD
   28 1	
Mg		0.00000000		0.00000000		0.00000000		0.00000000		0.00000000		0.00000000	
Mg		5.10070490		0.00000000		2.43711170		0.00000000		0.00000000		0.00000000	
Mg		0.00000000		2.99173991		0.00000000		0.00000000		0.00000000		0.00000000	
Mg		5.10070490		2.99173991		2.43711170		0.00000000		0.00000000		0.00000000	
Mg		2.82885094		1.49587046		4.83279241		 0.00037166		0.00000000		-0.00020223	
Mg		7.37255886		4.48761037		0.04143099		-0.00037166		0.00000000		 0.00020223	
Mg		2.27185396		4.48761037		2.39568071		-0.00037166		-0.00000000		-0.00020223	
Mg		7.92955584		1.49587046		2.47854269		 0.00037166		-0.00000000		 0.00020223	
Si		0.95893252		1.49587046		2.07836892		-0.00010478		0.00000000		-0.00002432	
Si		9.24247830		4.48761037		2.79585448		 0.00010478		0.00000000		 0.00002432	
Si		4.14177340		4.48761037		4.51548062		 0.00010478		0.00000000		-0.00002432	
Si		6.05963742		1.49587046		0.35874278		-0.00010478		0.00000000		 0.00002432	
O		0.93444914		1.49587046		3.73024343		-0.00046306		0.00000000		 0.00043831	
O		9.26696066		4.48761037		1.14397997		 0.00046306		0.00000000		-0.00043831	
O		4.16625576		4.48761037		1.29313071		 0.00046306		0.00000000		 0.00043831	
O		6.03515404		1.49587046		3.58109167		-0.00046306		-0.00000000		-0.00043831	
O		4.55901004		1.49587046		1.07769121		-0.00007522		0.00000000		 0.00028102	
O		5.64239976		4.48761037		3.79653321		 0.00007522		-0.00000000		-0.00028102	
O		0.54169486		4.48761037		3.51480291		 0.00007522		-0.00000000		 0.00028102	
O		9.65971596		1.49587046		1.35942049		-0.00007522		0.00000000		-0.00028102	
O		1.65976937		0.19865205		1.35405863		-0.00019700		 0.00017211		-0.00052739	
O		8.54164042		5.78482776		3.52016375		 0.00019700		-0.00017211		 0.00052739	
O		3.44093552		5.78482776		3.79117135		 0.00019700		-0.00017211		-0.00052739	
O		6.76047529		0.19865205		1.08305307		-0.00019700		 0.00017211		 0.00052739	
O		8.54164042		3.19039196		3.52016375		 0.00019700		 0.00017211		 0.00052739	
O		1.65976937		2.79308785		1.35405863		-0.00019700		-0.00017211		-0.00052739	
O		6.76047529		2.79308785		1.08305307		-0.00019700		-0.00017211		 0.00052739	
O		3.44093552		3.19039196		3.79117135		 0.00019700		 0.00017211		-0.00052739	
