# total energy = -20638.5771108 eV	

CRYSTAL	
PRIMVEC	
		10.20140980		0.00000000		0.00000000	
		0.00000000		5.98348390		0.00000000	
		0.00000000		0.00000000		4.63645914	
PRIMCOORD
   28 1	
Mg		0.00000000		0.00000000		0.00000000		0.00000000		0.00000000		0.00000000	
Mg		5.10070490		0.00000000		2.31822753		0.00000000		0.00000000		-0.00000000	
Mg		0.00000000		2.99173991		0.00000000		0.00000000		-0.00000000		0.00000000	
Mg		5.10070490		2.99173991		2.31822753		0.00000000		0.00000000		0.00000000	
Mg		2.82885094		1.49587046		4.59704702		 0.00045344		0.00000000		-0.00042243	
Mg		7.37255886		4.48761037		0.03941009		-0.00045344		0.00000000		 0.00042243	
Mg		2.27185396		4.48761037		2.27881846		-0.00045344		0.00000000		-0.00042243	
Mg		7.92955584		1.49587046		2.35763762		 0.00045344		0.00000000		 0.00042243	
Si		0.95893252		1.49587046		1.97698527		 0.00023272		0.00000000		-0.00031255	
Si		9.24247830		4.48761037		2.65947081		-0.00023272		0.00000000		 0.00031255	
Si		4.14177340		4.48761037		4.29521280		-0.00023272		0.00000000		-0.00031255	
Si		6.05963742		1.49587046		0.34124328		 0.00023272		0.00000000		 0.00031255	
O		0.93444914		1.49587046		3.54827986		 0.00009857		0.00000000		-0.00046686	
O		9.26696066		4.48761037		1.08817622		-0.00009857		0.00000000		 0.00046686	
O		4.16625576		4.48761037		1.23005233		-0.00009857		0.00000000		-0.00046686	
O		6.03515404		1.49587046		3.40640477		 0.00009857		0.00000000		 0.00046686	
O		4.55901004		1.49587046		1.02512131		-0.00030182		0.00000000		-0.00059970	
O		5.64239976		4.48761037		3.61133579		 0.00030182		0.00000000		 0.00059970	
O		0.54169486		4.48761037		3.34334884		 0.00030182		0.00000000		-0.00059970	
O		9.65971596		1.49587046		1.29310826		-0.00030182		0.00000000		 0.00059970	
O		1.65976937		0.19865205		1.28800756		 0.00024413		-0.00041144		-0.00003781	
O		8.54164042		5.78482776		3.34844852		-0.00024413		 0.00041144		 0.00003781	
O		3.44093552		5.78482776		3.60623611		-0.00024413		 0.00041144		-0.00003781	
O		6.76047529		0.19865205		1.03022099		 0.00024413		-0.00041144		 0.00003781	
O		8.54164042		3.19039196		3.34844852		-0.00024413		-0.00041144		 0.00003781	
O		1.65976937		2.79308785		1.28800756		 0.00024413		 0.00041144		-0.00003781	
O		6.76047529		2.79308785		1.03022099		 0.00024413		 0.00041144		 0.00003781	
O		3.44093552		3.19039196		3.60623611		-0.00024413		-0.00041144		-0.00003781	
