# total energy = -9211.3711873 eV

CRYSTAL
PRIMVEC
		5.32600180		0.85216266		0.00000000
		-1.92501027		4.18636888		0.00000000
		0.00000000		0.00000000		7.28800235
PRIMECORD
   18 1
Mg		1.76716673		0.28274696		3.31604010		 0.00076029		-0.00035323		 0.00024527
Mg		-0.63871773		1.38903792		3.31604010		-0.00025593		 0.00029174		 0.00072002
Mg		2.27254308		3.36674666		3.31604010		-0.00038670		-0.00001876		-0.00009759
Si		0.49199501		3.07496789		0.53931215		 0.00013343		-0.00020047		 0.00011676
Si		2.90899814		1.96356419		0.53931215		-0.00017739		 0.00016096		 0.00010634
H		3.10505795		0.49680893		5.33481571		-0.00014743		 0.00006497		 0.00038904
H		-1.12228017		2.44065468		5.33481571		 0.00007174		-0.00037446		-0.00033961
H		1.41821375		2.10106793		5.33481571		-0.00002342		-0.00006345		 0.00058412
H		0.00000000		0.00000000		1.43573586		 0.00007939		-0.00089695		-0.00068998
O		0.49199501		3.07496789		2.12153718		-0.00079041		 0.00007825		-0.00004954
O		2.90899814		1.96356419		2.12153718		 0.00007025		 0.00040703		-0.00009177
O		2.70028190		0.43204519		7.22969600		 0.00033261		 0.00006365		 0.00059516
O		-0.97597870		2.12248972		7.22969600		-0.00024688		 0.00018012		-0.00067332
O		1.67668887		2.48399609		7.22969600		 0.00030871		 0.00063072		 0.00041440
O		3.53646399		0.56583372		4.28534404		-0.00000554		 0.00083479		-0.00027874
O		-1.27820516		2.77975114		4.28534404		 0.00050558		-0.00047016		-0.00057985
O		1.14273378		1.69294668		4.28534404		-0.00034198		-0.00012026		 0.00008848
O		0.00000000		0.00000000		2.21555172		 0.00011367		-0.00021448		-0.00045918
