# total energy = -35731.7441044 eV

CRYSTAL
PRIMVEC
		7.86030088		0.94323421		0.00000000
		-3.11328642		6.33560152		0.00000000
		0.00000000		0.00000000		9.57299791
PRIMECORD
   46 1
Mg		1.50999411		3.23186975		3.69230611		 0.00968491		-0.03559930		-0.00415658
Mg		1.42978377		6.32726049		3.69230611		-0.01002161		-0.01517679		-0.00335231
Mg		-1.30604509		4.05530779		3.69230611		 0.02567960		 0.00622495		-0.01867622
Mg		3.23702273		4.04696676		8.47880586		-0.00968491		 0.03559930		-0.00415658
Mg		3.31723306		0.95157602		8.47880586		 0.01002161		 0.01517679		-0.00335231
Mg		6.05306034		3.22352952		8.47880586		-0.02567960		-0.00622495		-0.01867622
Mg		1.01112063		1.75703605		1.07887721		 0.00456300		-0.02226463		-0.00228172
Mg		2.88858222		6.93103488		1.07887721		 0.02316965		-0.01937507		-0.00715225
Mg		-2.26597085		4.92636789		1.07887721		 0.00929414		-0.00563383		-0.00782061
Mg		3.73589462		5.52180047		5.86537696		-0.00456300		 0.02226463		-0.00228172
Mg		1.85843382		0.34780321		5.86537696		-0.02316965		 0.01937507		-0.00715225
Mg		7.01298689		2.35246862		5.86537696		-0.00929414		 0.00563383		-0.00782061
Mg		0.54457812		4.53814601		0.98506204		 0.00322962		 0.00120446		-0.01125709
Mg		4.20243871		2.74069050		5.77156179		-0.00322962		-0.00120446		-0.01125709
Si		4.20243871		2.74069050		1.66665910		 0.00259933		 0.01776543		-0.00442375
Si		0.54457812		4.53814601		6.45315884		-0.00259933		-0.01776543		-0.00442375
Si		0.00000000		0.00000000		3.84643063		-0.00986244		-0.01255975		 0.00778010
Si		0.00000000		0.00000000		8.63293117		 0.00986244		 0.01255975		 0.00778010
O		1.48754158		0.36233668		9.34324761		 0.01205155		-0.00922960		 0.00794435
O		7.10726360		2.01154976		9.34324761		-0.00026416		-0.00218654		-0.00059965
O		4.01251095		5.84818666		9.34324761		-0.01982075		 0.00148492		-0.00404994
O		3.25947367		6.91649984		4.55674786		-0.01205155		 0.00922960		 0.00794435
O		-2.36024677		5.26728754		4.55674786		 0.00026416		 0.00218654		-0.00059965
O		0.73450588		1.43065065		4.55674786		 0.01982075		-0.00148492		-0.00404994
O		3.43862682		1.07550391		4.63716086		 0.01800231		 0.00063774		-0.00651191
O		5.90750405		3.24363395		4.63716086		-0.07009649		-0.00988343		 0.01526749
O		3.26118605		3.90293444		4.63716086		 0.03834232		 0.01035268		-0.00075532
O		1.30839002		6.20333339		9.42366061		-0.01800231		-0.00063774		-0.00651191
O		-1.16048722		4.03520256		9.42366061		 0.07009649		 0.00988343		 0.01526749
O		1.48582999		3.37590208		9.42366061		-0.03834232		-0.01035268		-0.00075532
O		2.64951872		2.29514227		2.22093596		 0.00177213		-0.00781587		 0.01461354
O		5.04854540		1.67325924		2.22093596		-0.01756279		-0.00598343		 0.02180084
O		4.90925042		4.25367316		2.22093596		 0.00505337		 0.00864888		 0.01579810
O		2.09749653		4.98369503		7.00743570		-0.00177213		 0.00781587		 0.01461354
O		-0.30153015		5.60557885		7.00743570		 0.01756279		 0.00598343		 0.02180084
O		-0.16223438		3.02516494		7.00743570		-0.00505337		-0.00864888		 0.01579810
O		-0.02017569		2.92748484		2.29560461		-0.01606136		 0.00829093		 0.01495534
O		2.14349092		5.17975585		2.29560461		 0.00667540		-0.02415338		-0.00357938
O		-0.48958166		5.50719892		2.29560461		-0.02008050		 0.01926484		-0.01763247
O		4.76719173		4.35135247		7.08210436		 0.01606136		-0.00829093		 0.01495534
O		2.60352591		2.09908224		7.08210436		-0.00667540		 0.02415338		-0.00357938
O		5.23659849		1.77163918		7.08210436		 0.02008050		-0.01926484		-0.01763247
O		4.20243871		2.74069050		0.00000000		-0.00374399		-0.01635620		-0.02208724
O		0.54457812		4.53814601		4.78649975		 0.00374399		 0.01635620		-0.02208724
O		0.00000000		0.00000000		2.22380813		 0.00327325		 0.00977684		 0.01617672
O		0.00000000		0.00000000		7.01030788		-0.00327325		-0.00977684		 0.01617672
