# total energy = -35734.9845673 eV

CRYSTAL
PRIMVEC
		7.86030298		1.25765198		0.00000000
		-2.84099866		6.17839217		0.00000000
		0.00000000		0.00000000		9.57299619
PRIMECORD
   46 1
Mg		1.63380289		3.27741283		3.69230640		-0.00124398		 0.00293510		 0.00688926
Mg		1.67960870		6.35447268		3.69230640		-0.00080106		-0.00014708		 0.00197385
Mg		-1.13510194		3.98255319		3.69230640		 0.00038182		-0.00033312		 0.00181246
Mg		3.38550224		4.15863132		8.47880609		 0.00124398		-0.00293510		 0.00688926
Mg		3.33969642		1.08156988		8.47880609		 0.00080106		 0.00014708		 0.00197385
Mg		6.15440706		3.45349096		8.47880609		-0.00038182		 0.00033312		 0.00181246
Mg		1.07750536		1.78951464		1.07887692		-0.00005921		-0.00256543		-0.00155502
Mg		3.15580688		7.01451091		1.07887692		-0.00124440		 0.00016425		 0.00275399
Mg		-2.05500100		4.81041315		1.07887692		-0.00372209		-0.00087171		-0.00389692
Mg		3.94179976		5.64652791		5.86537740		 0.00005921		 0.00256543		-0.00155502
Mg		1.86349904		0.42153324		5.86537740		 0.00124440		-0.00016425		 0.00275399
Mg		7.07430692		2.62563020		5.86537740		 0.00372209		 0.00087171		-0.00389692
Mg		0.72610295		4.53814624		0.98506188		 0.00107792		 0.00200531		-0.00289276
Mg		4.29320138		2.89789712		5.77156236		-0.00107792		-0.00200531		-0.00289276
Si		4.29320217		2.89789712		1.66665893		 0.00073544		-0.00136494		-0.00113082
Si		0.72610295		4.53814624		6.45315941		-0.00073544		 0.00136494		-0.00113082
Si		0.00000000		0.00000000		3.84643088		 0.00217993		-0.00045361		 0.00174563
Si		0.00000000		0.00000000		8.63293216		-0.00217993		 0.00045361		 0.00174563
O		1.49500274		0.42094338		9.34324829		-0.00086111		-0.00062345		-0.00141847
O		7.15428779		2.29019690		9.34324829		 0.00001013		 0.00160830		 0.00133627
O		4.23031520		5.98255107		9.34324829		-0.00276750		 0.00122888		-0.00099673
O		3.52430239		7.01509997		4.55674781		 0.00086111		 0.00062345		-0.00141847
O		-2.13498267		5.14584565		4.55674781		-0.00001013		-0.00160830		 0.00133627
O		0.78899073		1.45349308		4.55674781		 0.00276750		-0.00122888		-0.00099673
O		3.46552928		1.20982107		4.63716093		 0.00109809		-0.00014432		 0.00173023
O		6.01037542		3.46759020		4.63716093		-0.00096106		 0.00279190		-0.00310820
O		3.40370182		4.01628088		4.63716093		-0.00261318		-0.00143314		-0.00169356
O		1.55377664		6.22622308		9.42366141		-0.00109809		 0.00014432		 0.00173023
O		-0.99106870		3.96845316		9.42366141		 0.00096106		-0.00279190		-0.00310820
O		1.61560331		3.41976327		9.42366141		 0.00261318		 0.00143314		-0.00169356
O		2.72976335		2.39149381		2.22093613		 0.00129797		-0.00150220		-0.00558098
O		5.09186702		1.87000179		2.22093613		-0.00211622		 0.00761910		-0.00162695
O		5.05797535		4.43219576		2.22093613		-0.00236854		-0.00145849		 0.00134310
O		2.28954337		5.04455034		7.00743582		-0.00129797		 0.00150220		-0.00558098
O		-0.07256190		5.56604236		7.00743582		 0.00211622		-0.00761910		-0.00162695
O		-0.03867023		3.00384839		7.00743582		 0.00236854		 0.00145849		 0.00134310
O		0.09873290		2.91240791		2.29560512		-0.00295264		-0.00110518		 0.00198980
O		2.34326886		5.24152180		2.29560512		 0.00233003		 0.00076694		 0.00109251
O		-0.26369131		5.46050820		2.29560512		-0.00090265		-0.00072220		-0.00133055
O		4.92057223		4.52363465		7.08210480		 0.00295264		 0.00110518		 0.00198980
O		2.67603626		2.19452235		7.08210480		-0.00233003		-0.00076694		 0.00109251
O		5.28299723		1.97553515		7.08210480		 0.00090265		 0.00072220		-0.00133055
O		4.29320217		2.89789712		0.00000000		 0.00000498		-0.00160352		-0.00040680
O		0.72610295		4.53814624		4.78649969		-0.00000498		 0.00160352		-0.00040680
O		0.00000000		0.00000000		2.22380820		 0.00212498		-0.00414305		 0.00297061
O		0.00000000		0.00000000		7.01030789		-0.00212498		 0.00414305		 0.00297061
