# total energy = -12346.6014812 eV

CRYSTAL
PRIMVEC
		4.33377817		0.00000000		0.00000000
		0.00000000		4.66480082		0.00000000
		0.00000000		0.00000000		6.45439984
PRIMECORD
   20 1
O		0.46328089		2.21811218		1.61359996		 0.00039524		 0.00001070		-0.00000000
O		3.87049729		2.44668821		4.84080032		-0.00039524		-0.00001070		-0.00000000
O		2.63016911		0.11428780		4.84080032		 0.00039524		-0.00001070		0.00000000
O		1.70360820		4.55051302		1.61359996		-0.00039524		 0.00001070		0.00000000
O		0.81605000		0.90450501		3.62801806		 0.00005648		 0.00018377		-0.00006114
O		3.51772731		3.76029494		2.82638221		-0.00005648		-0.00018377		 0.00006114
O		2.98293908		1.42789497		2.82638221		 0.00005648		-0.00018377		 0.00006114
O		1.35083822		3.23690498		3.62801806		-0.00005648		 0.00018377		-0.00006114
O		3.51772731		3.76029494		0.40081814		-0.00005648		-0.00018377		-0.00006114
O		0.81605000		0.90450501		6.05358213		 0.00005648		 0.00018377		 0.00006114
O		1.35083822		3.23690498		6.05358213		-0.00005648		 0.00018377		 0.00006114
O		2.98293908		1.42789497		0.40081814		 0.00005648		-0.00018377		-0.00006114
Mg		2.24576298		2.71351416		1.61359996		-0.00036525		-0.00024860		-0.00000000
Mg		2.08801389		1.95128622		4.84080032		 0.00036525		 0.00024860		-0.00000000
Mg		0.07887520		4.28368620		4.84080032		-0.00036525		 0.00024860		0.00000000
Mg		4.25490298		0.38111419		1.61359996		 0.00036525		-0.00024860		0.00000000
Si		2.16688909		0.00000000		3.22719992		0.00000000		0.00000000		0.00000000
Si		0.00000000		2.33239998		3.22719992		0.00000000		0.00000000		-0.00000000
Si		2.16688909		0.00000000		0.00000000		0.00000000		0.00000000		0.00000000
Si		0.00000000		2.33239998		0.00000000		0.00000000		0.00000000		0.00000000
