# total energy = -12351.4201249 eV

CRYSTAL
PRIMVEC
		4.77826797		0.00000000		0.00000000
		0.00000000		4.66479844		0.00000000
		0.00000000		0.00000000		6.45439837
PRIMECORD
   20 1
O		0.51079685		2.21811213		1.61360007		 0.00052230		-0.00005101		0.00000000
O		4.26747112		2.44668822		4.84080021		-0.00052230		 0.00005101		0.00000000
O		2.89992988		0.11428805		4.84080021		 0.00052230		 0.00005101		-0.00000000
O		1.87833714		4.55051278		1.61360007		-0.00052230		-0.00005101		-0.00000000
O		0.89974786		0.90450510		3.62801798		-0.00018004		-0.00049115		-0.00016851
O		3.87852011		3.76029477		2.82638182		 0.00018004		 0.00049115		 0.00016851
O		3.28888184		1.42789507		2.82638182		-0.00018004		 0.00049115		 0.00016851
O		1.48938613		3.23690480		3.62801798		 0.00018004		-0.00049115		-0.00016851
O		3.87852011		3.76029477		0.40081784		 0.00018004		 0.00049115		-0.00016851
O		0.89974786		0.90450510		6.05358196		-0.00018004		-0.00049115		 0.00016851
O		1.48938613		3.23690480		6.05358196		 0.00018004		-0.00049115		 0.00016851
O		3.28888184		1.42789507		0.40081784		-0.00018004		 0.00049115		-0.00016851
Mg		2.47609798		2.71351387		1.61360007		-0.00064800		-0.00001425		0.00000000
Mg		2.30216903		1.95128600		4.84080021		 0.00064800		 0.00001425		0.00000000
Mg		0.08696400		4.28368618		4.84080021		-0.00064800		 0.00001425		0.00000000
Mg		4.69130302		0.38111418		1.61360007		 0.00064800		-0.00001425		0.00000000
Si		2.38913399		0.00000000		3.22720014		0.00000000		0.00000000		0.00000000
Si		0.00000000		2.33240018		3.22720014		0.00000000		0.00000000		0.00000000
Si		2.38913399		0.00000000		0.00000000		0.00000000		0.00000000		0.00000000
Si		0.00000000		2.33240018		0.00000000		0.00000000		0.00000000		0.00000000
