# total energy = -12341.7278779 eV

CRYSTAL
PRIMVEC
		4.11153274		0.00000000		0.00000000
		0.00000000		4.66480115		0.00000000
		0.00000000		0.00000000		6.45439923
PRIMECORD
   20 1
O		0.43952285		2.21811189		1.61359981		-0.00001113		 0.00081238		0.00000000
O		3.67200989		2.44668803		4.84079983		 0.00001113		-0.00081238		0.00000000
O		2.49528881		0.11428786		4.84079983		-0.00001113		-0.00081238		0.00000000
O		1.61624270		4.55051287		1.61359981		 0.00001113		 0.00081238		0.00000000
O		0.77420203		0.90450513		3.62801773		-0.00016106		 0.00023534		 0.00003340
O		3.33733072		3.76029478		2.82638191		 0.00016106		-0.00023534		-0.00003340
O		2.82996799		1.42789503		2.82638191		-0.00016106		-0.00023534		-0.00003340
O		1.28156476		3.23690489		3.62801773		 0.00016106		 0.00023534		 0.00003340
O		3.33733072		3.76029478		0.40081811		 0.00016106		-0.00023534		 0.00003340
O		0.77420203		0.90450513		6.05358152		-0.00016106		 0.00023534		-0.00003340
O		1.28156476		3.23690489		6.05358152		 0.00016106		 0.00023534		-0.00003340
O		2.82996799		1.42789503		0.40081811		-0.00016106		-0.00023534		 0.00003340
Mg		2.13059586		2.71351376		1.61359981		 0.00050092		 0.00028151		0.00000000
Mg		1.98093607		1.95128575		4.84079983		-0.00050092		-0.00028151		0.00000000
Mg		0.07482990		4.28368591		4.84079983		 0.00050092		-0.00028151		0.00000000
Mg		4.03670285		0.38111401		1.61359981		-0.00050092		 0.00028151		0.00000000
Si		2.05576596		0.00000000		3.22719961		0.00000000		0.00000000		-0.00000000
Si		0.00000000		2.33239975		3.22719961		0.00000000		0.00000000		0.00000000
Si		2.05576596		0.00000000		0.00000000		0.00000000		0.00000000		0.00000000
Si		0.00000000		2.33239975		0.00000000		0.00000000		0.00000000		0.00000000
