# total energy = -2069.13787126 eV

CRYSTAL
PRIMVEC
		3.01147071		0.00000000		0.00000000
		-1.50573536		2.54440064		0.00000000
		0.00000000		0.00000000		2.67967892
PRIMECORD
   2 1
Mg		0.00000000		0.00000000		0.00000000		0.00000000		 0.00030023		0.00000000
O		0.00000000		1.69626689		1.33983976		0.00000000		-0.00030023		0.00000000
