# total energy = -9215.03610802 eV	

CRYSTAL	
PRIMVEC	
		5.32599971		0.00000000		0.00000000	
		-2.66299986		4.61244890		0.00000000	
		0.00000000		0.00000000		8.01680128	
PRIMCOORD
   18 1	
Mg		1.76716670		0.00000000		3.64764405		-0.00046778		0.00000000		 0.00012269	
Mg		-0.88358282		1.53041110		3.64764405		 0.00023389		-0.00040511		 0.00012269	
Mg		1.77941704		3.08203993		3.64764405		 0.00023389		 0.00040511		 0.00012269	
Si		0.00000000		3.07496806		0.59324287		0.00000000		-0.00000000		-0.00001196	
Si		2.66299986		1.53748403		0.59324287		0.00000000		0.00000000		-0.00001196	
H		3.10505783		0.00000000		5.86829779		-0.00007923		0.00000000		 0.00023417	
H		-1.55252892		2.68905891		5.86829779		 0.00003962		-0.00006862		 0.00023417	
H		1.11047094		1.92339212		5.86829779		 0.00003962		 0.00006862		 0.00023417	
H		0.00000000		0.00000000		1.57931017		0.00000000		0.00000000		 0.00042993	
O		0.00000000		3.07496806		2.33369010		0.00000000		0.00000000		 0.00035721	
O		2.66299986		1.53748403		2.33369010		0.00000000		0.00000000		 0.00035721	
O		2.70028185		0.00000000		7.95266560		 0.00000847		0.00000000		-0.00044003	
O		-1.35014093		2.33851279		7.95266560		-0.00000423		 0.00000733		-0.00044003	
O		1.31285893		2.27393771		7.95266560		-0.00000423		-0.00000733		-0.00044003	
O		3.53646381		0.00000000		4.71387777		 0.00038875		-0.00000000		-0.00033648	
O		-1.76823190		3.06266767		4.71387777		-0.00019438		 0.00033667		-0.00033648	
O		0.89476795		1.54978390		4.71387777		-0.00019438		-0.00033667		-0.00033648	
O		0.00000000		0.00000000		2.43710663		-0.00000000		0.00000000		 0.00013855	
