# total energy = -9214.47209187 eV	

CRYSTAL	
PRIMVEC	
		5.32599971		0.00000000		0.00000000	
		-2.66299986		4.61244890		0.00000000	
		0.00000000		0.00000000		6.55919766	
PRIMCOORD
   18 1	
Mg		1.76716670		0.00000000		2.98443565		 0.00003423		0.00000000		 0.00029655	
Mg		-0.88358282		1.53041110		2.98443565		-0.00001711		 0.00002964		 0.00029655	
Mg		1.77941704		3.08203993		2.98443565		-0.00001711		-0.00002964		 0.00029655	
Si		0.00000000		3.07496806		0.48538072		-0.00000000		0.00000000		-0.00034780	
Si		2.66299986		1.53748403		0.48538072		0.00000000		0.00000000		-0.00034780	
H		3.10505783		0.00000000		4.80133388		-0.00006502		0.00000000		 0.00002621	
H		-1.55252892		2.68905891		4.80133388		 0.00003251		-0.00005630		 0.00002621	
H		1.11047094		1.92339212		4.80133388		 0.00003251		 0.00005630		 0.00002621	
H		0.00000000		0.00000000		1.29216209		0.00000000		-0.00000000		 0.00021478	
O		0.00000000		3.07496806		1.90938315		0.00000000		-0.00000000		-0.00016494	
O		2.66299986		1.53748403		1.90938315		0.00000000		0.00000000		-0.00016494	
O		2.70028185		0.00000000		6.50672591		-0.00019510		-0.00000000		 0.00038322	
O		-1.35014093		2.33851279		6.50672591		 0.00009756		-0.00016897		 0.00038322	
O		1.31285893		2.27393771		6.50672591		 0.00009756		 0.00016897		 0.00038322	
O		3.53646381		0.00000000		3.85680991		-0.00012066		0.00000000		-0.00030749	
O		-1.76823190		3.06266767		3.85680991		 0.00006033		-0.00010449		-0.00030749	
O		0.89476795		1.54978390		3.85680991		 0.00006033		 0.00010449		-0.00030749	
O		0.00000000		0.00000000		1.99399677		0.00000000		-0.00000000		-0.00038473	
