# total energy = -13384.2937188 eV	

CRYSTAL	
PRIMVEC	
		3.05299981		-0.12211987		0.00000000	
		-1.63225942		2.70503701		0.00000000	
		0.00000000		0.00000000		20.12499895	
PRIMCOORD
   18 1	
O		0.00000000		0.00000000		6.26491250		-0.00000214		 0.00010376		-0.00058676	
O		0.00000000		0.00000000		13.86008553		 0.00000214		-0.00010376		 0.00058676	
O		1.49124684		0.82026494		8.61752424		-0.00014086		-0.00007125		 0.00005388	
O		-0.07050614		1.76264975		11.50747379		 0.00014086		 0.00007125		-0.00005388	
O		1.49124684		0.82026494		1.44497493		-0.00012927		 0.00002358		-0.00072510	
O		-0.07050614		1.76264975		18.68002310		 0.00012927		-0.00002358		 0.00072510	
O		-0.07050614		1.76264975		3.79758759		-0.00015176		-0.00007907		 0.00026151	
O		1.49124684		0.82026494		16.32741044		 0.00015176		 0.00007907		-0.00026151	
H		1.49124684		0.82026494		9.60767415		 0.00062009		-0.00029317		 0.00050999	
H		-0.07050614		1.76264975		10.51732388		-0.00062009		 0.00029317		-0.00050999	
H		1.49124684		0.82026494		0.45482502		-0.00042988		 0.00019006		-0.00071162	
H		-0.07050614		1.76264975		19.67017301		 0.00042988		-0.00019006		 0.00071162	
Mg		-0.07050614		1.76264975		7.50461220		 0.00067791		-0.00045920		-0.00018750	
Mg		1.49124684		0.82026494		12.62038583		-0.00067791		 0.00045920		 0.00018750	
Mg		0.00000000		0.00000000		2.55788788		-0.00093523		 0.00052122		-0.00025931	
Mg		0.00000000		0.00000000		17.56711106		 0.00093523		-0.00052122		 0.00025931	
Mg		1.49124684		0.82026494		5.03326144		-0.00005215		-0.00000001		-0.00018593	
Mg		-0.07050614		1.76264975		15.09173537		 0.00005215		 0.00000001		 0.00018593	
