# total energy = -13383.5483616 eV	

CRYSTAL	
PRIMVEC	
		3.05299894		0.24423930		0.00000000	
		-1.31498110		2.52185617		0.00000000	
		0.00000000		0.00000000		20.12499998	
PRIMCOORD
   18 1	
O		0.00000000		0.00000000		6.26491253		 0.00013825		-0.00028617		-0.00042269	
O		0.00000000		0.00000000		13.86008592		-0.00013825		 0.00028617		 0.00042269	
O		1.59700590		1.00344482		8.61752429		-0.00007727		-0.00010296		 0.00011828	
O		0.14101194		1.76264973		11.50747416		 0.00007727		 0.00010296		-0.00011828	
O		1.59700590		1.00344482		1.44497478		-0.00004748		-0.00022046		-0.00043351	
O		0.14101194		1.76264973		18.68002367		 0.00004748		 0.00022046		 0.00043351	
O		0.14101194		1.76264973		3.79758777		 0.00003365		 0.00025515		 0.00012126	
O		1.59700590		1.00344482		16.32741099		-0.00003365		-0.00025515		-0.00012126	
H		1.59700590		1.00344482		9.60767431		 0.00018393		 0.00021636		-0.00003748	
H		0.14101194		1.76264973		10.51732414		-0.00018393		-0.00021636		 0.00003748	
H		1.59700590		1.00344482		0.45482507		-0.00052826		 0.00024646		-0.00032175	
H		0.14101194		1.76264973		19.67017369		 0.00052826		-0.00024646		 0.00032175	
Mg		0.14101194		1.76264973		7.50461236		-0.00026980		 0.00000025		-0.00050843	
Mg		1.59700590		1.00344482		12.62038609		 0.00026980		-0.00000025		 0.00050843	
Mg		0.00000000		0.00000000		2.55788794		 0.00063304		-0.00018918		 0.00007644	
Mg		0.00000000		0.00000000		17.56711174		-0.00063304		 0.00018918		-0.00007644	
Mg		1.59700590		1.00344482		5.03326161		 0.00027187		 0.00002168		-0.00016858	
Mg		0.14101194		1.76264973		15.09173592		-0.00027187		-0.00002168		 0.00016858	
