# total energy = -13380.7153305 eV	

CRYSTAL	
PRIMVEC	
		3.05300125		0.48848156		0.00000000	
		-1.10346541		2.39973744		0.00000000	
		0.00000000		0.00000000		20.12500064	
PRIMCOORD
   18 1	
O		0.00000000		0.00000000		6.26491337		 0.00019993		 0.00011385		-0.00046892	
O		0.00000000		0.00000000		13.86008758		-0.00019993		-0.00011385		 0.00046892	
O		1.66751195		1.12556489		8.61752542		 0.00027732		 0.00025039		 0.00003066	
O		0.28202389		1.76265008		11.50747553		-0.00027732		-0.00025039		-0.00003066	
O		1.66751195		1.12556489		1.44497490		 0.00036062		 0.00028830		-0.00071064	
O		0.28202389		1.76265008		18.68002574		-0.00036062		-0.00028830		 0.00071064	
O		0.28202389		1.76265008		3.79758819		 0.00002853		-0.00087032		-0.00010859	
O		1.66751195		1.12556489		16.32741245		-0.00002853		 0.00087032		 0.00010859	
H		1.66751195		1.12556489		9.60767551		-0.00022231		-0.00037986		-0.00019842	
H		0.28202389		1.76265008		10.51732544		 0.00022231		 0.00037986		 0.00019842	
H		1.66751195		1.12556489		0.45482512		 0.00006073		 0.00005594		 0.00029209	
H		0.28202389		1.76265008		19.67017583		-0.00006073		-0.00005594		-0.00029209	
Mg		0.28202389		1.76265008		7.50461323		-0.00044251		-0.00020959		-0.00012322	
Mg		1.66751195		1.12556489		12.62038741		 0.00044251		 0.00020959		 0.00012322	
Mg		0.00000000		0.00000000		2.55788802		-0.00028636		-0.00043271		-0.00012320	
Mg		0.00000000		0.00000000		17.56711355		 0.00028636		 0.00043271		 0.00012320	
Mg		1.66751195		1.12556489		5.03326217		 0.00004977		-0.00021397		-0.00023159	
Mg		0.28202389		1.76265008		15.09173754		-0.00004977		 0.00021397		 0.00023159	
