# total energy = -21542.1834241 eV	

CRYSTAL	
PRIMVEC	
		5.18480053		0.00000000		0.62217481	
		0.00000000		8.92299828		0.00000000	
		0.95823119		-0.11066978		9.17087602	
PRIMCOORD
   42 1	
Mg		0.00000000		0.00000000		0.00000000		0.00000000		0.00000000		0.00000000	
Mg		2.59239974		4.46149966		0.31108793		0.00000000		0.00000000		0.00000000	
Mg		2.59239974		1.48648317		0.31108793		-0.00000442		 0.00049530		-0.00007526	
Mg		2.59239974		7.43651772		0.31108793		 0.00000442		-0.00049530		 0.00007526	
Mg		0.00000000		5.94798283		0.00000000		-0.00000430		 0.00045528		-0.00007623	
Mg		0.00000000		2.97501701		0.00000000		 0.00000430		-0.00045528		 0.00007623	
Si		4.60125753		1.45641909		3.18741495		 0.00032490		-0.00008064		 0.00023636	
Si		1.54177471		7.35591045		6.60563745		-0.00032490		 0.00008064		-0.00023636	
Si		2.00885779		5.91791875		2.87632702		 0.00035620		-0.00039871		 0.00015770	
Si		4.13417498		2.89440975		6.91672538		-0.00035620		 0.00039871		-0.00015770	
Si		2.00885779		2.94067090		2.87632702		 0.00035149		 0.00018393		 0.00002925	
Si		4.13417498		5.87165865		6.91672538		-0.00035149		-0.00018393		-0.00002925	
Si		4.60125753		7.40217056		3.18741495		 0.00032642		-0.00012607		 0.00010502	
Si		1.54177471		1.41015899		6.60563745		-0.00032642		 0.00012607		-0.00010502	
O		1.84238888		2.95861159		1.28605875		-0.00023703		 0.00005053		 0.00008816	
O		4.30064388		5.85371743		8.50699365		 0.00023703		-0.00005053		-0.00008816	
O		4.43478862		7.42011177		1.59714668		-0.00023755		 0.00008913		 0.00008885	
O		1.70824414		1.39221777		8.19590572		 0.00023755		-0.00008913		-0.00008885	
O		4.43478862		1.47694780		1.59714668		-0.00014041		-0.00025752		 0.00007813	
O		1.70824414		7.33538174		8.19590572		 0.00014041		 0.00025752		-0.00007813	
O		1.84238888		5.93844746		1.28605875		-0.00014021		-0.00021797		 0.00008080	
O		4.30064388		2.87388208		8.50699365		 0.00014021		 0.00021797		-0.00008080	
O		1.83427964		-0.01246177		1.23980701		-0.00029724		-0.00000687		-0.00057730	
O		4.30875364		-0.09820905		8.55324644		 0.00029724		 0.00000687		 0.00057730	
O		4.42667991		4.44903893		1.55089493		-0.00032480		-0.00000631		-0.00028933	
O		1.71635390		4.36329061		8.24215851		 0.00032480		 0.00000631		 0.00028933	
O		2.15653690		4.42297595		3.41113991		 0.00007172		-0.00001860		-0.00004930	
O		3.98649691		4.38935360		6.38191353		-0.00007172		 0.00001860		 0.00004930	
O		4.74893664		-0.03852476		3.72222784		 0.00008436		-0.00002498		 0.00001848	
O		1.39409717		-0.07214606		6.07082560		-0.00008436		 0.00002498		-0.00001848	
O		3.31486196		2.11174105		3.55738298		-0.00014651		 0.00017277		-0.00001469	
O		2.82817185		6.70058850		6.23566942		 0.00014651		-0.00017277		 0.00001469	
O		0.72246221		6.57324071		3.24629505		-0.00042497		 0.00037345		-0.00006388	
O		5.42057160		2.23908884		6.54675735		 0.00042497		-0.00037345		 0.00006388	
O		0.72240999		2.27253312		3.24628878		-0.00045320		-0.00064502		-0.00003820	
O		5.42062382		6.53979643		6.54676466		 0.00045320		 0.00064502		 0.00003820	
O		3.31480974		6.73403278		3.55737671		-0.00017960		-0.00044592		 0.00001316	
O		2.82822407		2.07829572		6.23567673		 0.00017960		 0.00044592		-0.00001316	
H		1.92116375		-0.00881421		2.06888464		-0.00025111		-0.00005836		 0.00033241	
H		4.22186954		8.82114323		7.72416776		 0.00025111		 0.00005836		-0.00033241	
H		4.51356297		4.45268597		2.37997309		-0.00022755		-0.00005880		 0.00006893	
H		1.62946980		4.35964252		7.41307931		 0.00022755		 0.00005880		-0.00006893	
