# total energy = -21541.7883564 eV	

CRYSTAL	
PRIMVEC	
		5.18480002		0.00000000		-0.20739179	
		0.00000000		8.92299974		0.00000000	
		-0.51187914		-0.11066984		9.19397169	
PRIMCOORD
   42 1	
Mg		0.00000000		0.00000000		0.00000000		0.00000000		0.00000000		0.00000000	
Mg		2.59240001		4.46149987		-0.10369590		0.00000000		0.00000000		0.00000000	
Mg		2.59240001		1.48648307		-0.10369590		-0.00002447		-0.00007345		-0.00016194	
Mg		2.59240001		7.43651771		-0.10369590		 0.00002447		 0.00007345		 0.00016194	
Mg		0.00000000		5.94798293		0.00000000		-0.00002625		-0.00004750		-0.00016845	
Mg		0.00000000		2.97501680		0.00000000		 0.00002625		 0.00004750		 0.00016845	
Si		4.17345577		1.45641883		2.50254978		-0.00028199		-0.00001262		 0.00037187	
Si		0.49946615		7.35591055		6.48403167		 0.00028199		 0.00001262		-0.00037187	
Si		1.58105576		5.91791870		2.60624568		-0.00028681		 0.00007916		 0.00040684	
Si		3.09186564		2.89440964		6.38033577		 0.00028681		-0.00007916		-0.00040684	
Si		1.58105576		2.94067065		2.60624568		-0.00030542		-0.00007409		 0.00029102	
Si		3.09186564		5.87165873		6.38033577		 0.00030542		 0.00007409		-0.00029102	
Si		4.17345577		7.40217052		2.50254978		-0.00027931		 0.00012941		 0.00027697	
Si		0.49946615		1.41015886		6.48403167		 0.00027931		-0.00012941		-0.00027697	
O		1.66950394		2.95861195		1.01202297		 0.00054328		-0.00010694		 0.00019743	
O		3.00341694		5.85371795		7.97455796		-0.00054328		 0.00010694		-0.00019743	
O		4.26190395		7.42011182		0.90832707		 0.00054144		-0.00012348		 0.00018992	
O		0.41101693		1.39221808		8.07825386		-0.00054144		 0.00012348		-0.00018992	
O		4.26190395		1.47694786		0.90832707		 0.00051705		 0.00036818		 0.00015447	
O		0.41101693		7.33538152		8.07825386		-0.00051705		-0.00036818		-0.00015447	
O		1.66950394		5.93844773		1.01202297		 0.00051994		 0.00035421		 0.00017248	
O		3.00341694		2.87388165		7.97455796		-0.00051994		-0.00035421		-0.00017248	
O		1.66874479		-0.01246177		0.96618589		-0.00029800		-0.00012060		-0.00045719	
O		3.00417609		-0.09820911		8.02039556		 0.00029800		 0.00012060		 0.00045719	
O		4.26114584		4.44903862		0.86249000		-0.00029066		-0.00011725		-0.00024235	
O		0.41177607		4.36329076		8.12409145		 0.00029066		 0.00011725		 0.00024235	
O		1.64479106		4.42297610		3.12750280		 0.00062033		-0.00000063		-0.00015629	
O		3.02813085		4.38935380		5.85907761		-0.00062033		 0.00000063		 0.00015629	
O		4.23719107		-0.03852481		3.02380691		 0.00060593		-0.00009790		-0.00019047	
O		0.43573084		-0.07214607		5.96277403		-0.00060593		 0.00009790		 0.00019047	
O		2.80194003		2.11174068		3.08855613		 0.00010985		 0.00051794		 0.00070825	
O		1.87098189		6.70058870		5.89802584		-0.00010985		-0.00051794		-0.00070825	
O		0.20954002		6.57324055		3.19225203		 0.00023066		 0.00042890		 0.00071038	
O		4.46338190		2.23908883		5.79432994		-0.00023066		-0.00042890		-0.00071038	
O		0.20948813		2.27253314		3.19225410		-0.00008977		-0.00020573		 0.00059357	
O		4.46343379		6.53979675		5.79432787		 0.00008977		 0.00020573		-0.00059357	
O		2.80188814		6.73403249		3.08855769		-0.00020964		-0.00029254		 0.00059980	
O		1.87103378		2.07829585		5.89802376		 0.00020964		 0.00029254		-0.00059980	
H		1.62273078		-0.00881394		1.79731079		-0.00058411		 0.00001708		-0.00034548	
H		3.05019114		8.82114384		7.18926962		 0.00058411		-0.00001708		 0.00034548	
H		4.21513079		4.45268593		1.69361489		-0.00059146		 0.00001416		-0.00053867	
H		0.45779113		4.35964293		7.29296552		 0.00059146		-0.00001416		 0.00053867	
