# total energy = -21541.3137576 eV	

CRYSTAL	
PRIMVEC	
		5.18480183		0.00000000		0.82957060	
		0.00000000		8.92300215		0.00000000	
		1.32576084		-0.11066997		9.16510355	
PRIMCOORD
   42 1	
Mg		0.00000000		0.00000000		0.00000000		0.00000000		0.00000000		0.00000000	
Mg		2.59239987		4.46150003		0.41478425		0.00000000		0.00000000		0.00000000	
Mg		2.59239987		1.48648303		0.41478425		 0.00000286		 0.00016551		-0.00004150	
Mg		2.59239987		7.43651807		0.41478425		-0.00000286		-0.00016551		 0.00004150	
Mg		0.00000000		5.94798305		0.00000000		 0.00000249		 0.00017634		-0.00004104	
Mg		0.00000000		2.97501700		0.00000000		-0.00000249		-0.00017634		 0.00004104	
Si		4.70820895		1.45641883		3.35863072		 0.00019853		-0.00046329		 0.00002691	
Si		1.80235320		7.35591072		6.63603975		-0.00019853		 0.00046329		-0.00002691	
Si		2.11580908		5.91791886		2.94384699		 0.00017471		-0.00035188		 0.00006092	
Si		4.39475307		2.89441017		7.05082400		-0.00017471		 0.00035188		-0.00006092	
Si		2.11580908		2.94067082		2.94384699		 0.00013586		 0.00011675		 0.00000035	
Si		4.39475307		5.87165874		7.05082400		-0.00013586		-0.00011675		-0.00000035	
Si		4.70820895		7.40217084		3.35863072		 0.00015500		 0.00022541		-0.00003228	
Si		1.80235320		1.41015924		6.63603975		-0.00015500		-0.00022541		 0.00003228	
O		1.88561113		2.95861209		1.35456801		-0.00002402		 0.00013276		 0.00003748	
O		4.62495102		5.85371799		8.64010299		 0.00002402		-0.00013276		-0.00003748	
O		4.47801100		7.42011212		1.76935174		-0.00002402		 0.00011439		 0.00004271	
O		2.03255116		1.39221796		8.22531873		 0.00002402		-0.00011439		-0.00004271	
O		4.47801100		1.47694820		1.76935174		 0.00003846		-0.00022293		 0.00001137	
O		2.03255116		7.33538188		8.22531873		-0.00003846		 0.00022293		-0.00001137	
O		1.88561113		5.93844770		1.35456801		 0.00003855		-0.00024113		 0.00000447	
O		4.62495102		2.87388185		8.64010299		-0.00003855		 0.00024113		-0.00000447	
O		1.87566412		-0.01246212		1.30821180		-0.00051112		-0.00002466		-0.00067342	
O		4.63489803		-0.09820890		8.68645972		 0.00051112		 0.00002466		 0.00067342	
O		4.46806398		4.44903896		1.72299605		-0.00047384		-0.00002427		-0.00094308	
O		2.04249817		4.36329112		8.27167600		 0.00047384		 0.00002427		 0.00094308	
O		2.28447302		4.42297583		3.48204898		 0.00002636		-0.00002404		 0.00020606	
O		4.22608808		4.38935373		6.51262307		-0.00002636		 0.00002404		-0.00020606	
O		4.87687289		-0.03852525		3.89683271		 0.00002317		-0.00002134		 0.00018266	
O		1.63368822		-0.07214577		6.09783882		-0.00002317		 0.00002134		-0.00018266	
O		3.44309212		2.11174081		3.67459016		-0.00016064		 0.00016623		 0.00004112	
O		3.06746898		6.70058875		6.32008189		 0.00016064		-0.00016623		-0.00004112	
O		0.85069173		6.57324083		3.25980591		-0.00005269		 0.00009182		 0.00005970	
O		5.65986885		2.23908872		6.73486562		 0.00005269		-0.00009182		-0.00005970	
O		0.85063975		2.27253282		3.25979803		 0.00000643		-0.00033567		 0.00007921	
O		5.65992083		6.53979673		6.73487402		-0.00000643		 0.00033567		-0.00007921	
O		3.44304119		6.73403285		3.67458176		-0.00009807		-0.00040853		 0.00006032	
O		3.06752096		2.07829618		6.32008977		 0.00009807		 0.00040853		-0.00006032	
H		1.99577178		-0.00881390		2.13677899		-0.00019549		-0.00008320		-0.00004208	
H		4.51478985		8.82114398		7.85789306		 0.00019549		 0.00008320		 0.00004208	
H		4.58817217		4.45268612		2.55156271		-0.00022284		-0.00008305		 0.00020283	
H		1.92238998		4.35964291		7.44310776		 0.00022284		 0.00008305		-0.00020283	
