# total energy = -21541.4930004 eV	

CRYSTAL	
PRIMVEC	
		5.18480053		0.00000000		-0.62217481	
		0.00000000		8.92299828		0.00000000	
		-1.24693451		-0.11066978		9.20551875	
PRIMCOORD
   42 1	
Mg		0.00000000		0.00000000		0.00000000		0.00000000		0.00000000		0.00000000	
Mg		2.59239974		4.46149966		-0.31108793		0.00000000		0.00000000		0.00000000	
Mg		2.59239974		1.48648317		-0.31108793		-0.00013592		-0.00041580		 0.00012982	
Mg		2.59239974		7.43651772		-0.31108793		 0.00013592		 0.00041580		-0.00012982	
Mg		0.00000000		5.94798283		0.00000000		-0.00013627		-0.00044905		 0.00012878	
Mg		0.00000000		2.97501701		0.00000000		 0.00013627		 0.00044905		-0.00012878	
Si		3.95955454		1.45641909		2.16011710		-0.00033929		-0.00014698		 0.00002751	
Si		-0.02168904		7.35591045		6.42322736		 0.00033929		 0.00014698		-0.00002751	
Si		1.36715375		5.91791875		2.47120503		-0.00031214		-0.00040231		-0.00004053	
Si		2.57071070		2.89440975		6.11213943		 0.00031214		 0.00040231		 0.00004053	
Si		1.36715375		2.94067090		2.47120503		-0.00027797		 0.00011752		 0.00003506	
Si		2.57071070		5.87165865		6.11213943		 0.00027797		-0.00011752		-0.00003506	
Si		3.95955454		7.40217056		2.16011710		-0.00029270		-0.00012239		 0.00009827	
Si		-0.02168904		1.41015899		6.42322736		 0.00029270		 0.00012239		-0.00009827	
O		1.58306191		2.95861159		0.87500510		-0.00006003		-0.00038253		-0.00025125	
O		2.35480411		5.85371743		7.70833936		 0.00006003		 0.00038253		 0.00025125	
O		4.17546165		7.42011177		0.56391717		-0.00006052		-0.00035040		-0.00025053	
O		-0.23759616		1.39221777		8.01942729		 0.00006052		 0.00035040		 0.00025053	
O		4.17546165		1.47694780		0.56391717		-0.00014830		 0.00022331		-0.00005748	
O		-0.23759616		7.33538174		8.01942729		 0.00014830		-0.00022331		 0.00005748	
O		1.58306191		5.93844746		0.87500510		-0.00014730		 0.00025638		-0.00005356	
O		2.35480411		2.87388208		7.70833936		 0.00014730		-0.00025638		 0.00005356	
O		1.58597787		-0.01246177		0.82937581		 0.00004257		-0.00011967		-0.00063909	
O		2.35188710		-0.09820905		7.75396969		-0.00004257		 0.00011967		 0.00063909	
O		4.17837762		4.44903893		0.51828788		 0.00007786		-0.00011936		-0.00043952	
O		-0.24051212		4.36329061		8.06505762		-0.00007786		 0.00011936		 0.00043952	
O		1.38891799		4.42297595		2.98568503		 0.00061214		-0.00026029		-0.00004012	
O		2.54894803		4.38935360		5.59765943		-0.00061214		 0.00026029		 0.00004012	
O		3.98131773		-0.03852476		2.67459658		 0.00063613		-0.00027105		 0.00001177	
O		-0.04345224		-0.07214606		5.90874788		-0.00063613		 0.00027105		-0.00001177	
O		2.54547906		2.11174105		2.85414189		-0.00008245		-0.00011945		 0.00013894	
O		1.39238696		6.70058850		5.72920257		 0.00008245		 0.00011945		-0.00013894	
O		-0.04692121		6.57324071		3.16522982		-0.00031198		 0.00004128		 0.00016169	
O		3.98478671		2.23908884		5.41811465		 0.00031198		-0.00004128		-0.00016169	
O		-0.04697291		2.27253312		3.16523556		-0.00018504		-0.00019459		 0.00011125	
O		3.98483893		6.53979643		5.41810890		 0.00018504		 0.00019459		-0.00011125	
O		2.54542684		6.73403278		2.85414763		 0.00003273		-0.00004129		 0.00009302	
O		1.39243866		2.07829572		5.72919683		-0.00003273		 0.00004129		-0.00009302	
H		1.47351382		-0.00881421		1.66152398		-0.00010089		 0.00004244		 0.00016346	
H		2.46435064		8.82114323		6.92182048		 0.00010089		-0.00004244		-0.00016346	
H		4.06591356		4.45268597		1.35043605		-0.00013253		 0.00004204		-0.00001857	
H		-0.12804911		4.35964252		7.23290945		 0.00013253		-0.00004204		 0.00001857	
