# total energy = -21541.4575982 eV	

CRYSTAL	
PRIMVEC	
		5.18479837		0.00000000		-0.41478283	
		0.00000000		8.92299839		0.00000000	
		-0.87940514		-0.11066944		9.19974741	
PRIMCOORD
   42 1	
Mg		0.00000000		0.00000000		0.00000000		0.00000000		0.00000000		0.00000000	
Mg		2.59239971		4.46149972		-0.20739193		0.00000000		0.00000000		0.00000000	
Mg		2.59239971		1.48648294		-0.20739193		 0.00011193		-0.00067946		-0.00026668	
Mg		2.59239971		7.43651754		-0.20739193		-0.00011193		 0.00067946		 0.00026668	
Mg		0.00000000		5.94798266		0.00000000		 0.00011125		-0.00068981		-0.00026740	
Mg		0.00000000		2.97501678		0.00000000		-0.00011125		 0.00068981		 0.00026740	
Si		4.06650496		1.45641905		2.33133385		-0.00012190		-0.00006528		-0.00026765	
Si		0.23888880		7.35591095		6.45362969		 0.00012190		 0.00006528		 0.00026765	
Si		1.47410473		5.91791877		2.53872578		-0.00012160		-0.00009732		-0.00024525	
Si		2.83128903		2.89440967		6.24623775		 0.00012160		 0.00009732		 0.00024525	
Si		1.47410473		2.94067113		2.53872578		-0.00012575		-0.00004645		-0.00017866	
Si		2.83128903		5.87165887		6.24623775		 0.00012575		 0.00004645		 0.00017866	
Si		4.06650496		7.40217084		2.33133385		-0.00012213		-0.00006631		-0.00020129	
Si		0.23888880		1.41015915		6.45362969		 0.00012213		 0.00006631		 0.00020129	
O		1.62628314		2.95861167		0.94351404		 0.00025325		-0.00045861		-0.00053382	
O		2.67911114		5.85371780		7.84144898		-0.00025325		 0.00045861		 0.00053382	
O		4.21868285		7.42011191		0.73612210		 0.00025766		-0.00046057		-0.00050731	
O		0.08671091		1.39221809		8.04884092		-0.00025766		 0.00046057		 0.00050731	
O		4.21868285		1.47694780		0.73612210		 0.00045388		 0.00085528		-0.00054200	
O		0.08671091		7.33538168		8.04884092		-0.00045388		-0.00085528		 0.00054200	
O		1.62628314		5.93844804		0.94351404		 0.00044975		 0.00085310		-0.00056490	
O		2.67911114		2.87388196		7.84144898		-0.00044975		-0.00085310		 0.00056490	
O		1.62736190		-0.01246195		0.89778104		-0.00017121		-0.00020269		-0.00007378	
O		2.67803186		-0.09820905		7.88718250		 0.00017121		 0.00020269		 0.00007378	
O		4.21976161		4.44903881		0.69038910		-0.00020570		-0.00020095		-0.00047882	
O		0.08563215		4.36329067		8.09457495		 0.00020570		 0.00020095		 0.00047882	
O		1.51685371		4.42297581		3.05659394		 0.00066597		-0.00009082		-0.00032796	
O		2.78853901		4.38935367		5.72836856		-0.00066597		 0.00009082		 0.00032796	
O		4.10925394		-0.03852495		2.84920201		 0.00067064		-0.00010124		-0.00032008	
O		0.19613878		-0.07214605		5.93576101		-0.00067064		 0.00010124		 0.00032008	
O		2.67370900		2.11174107		2.97134878		 0.00009949		 0.00088037		 0.00065494	
O		1.63168372		6.70058892		5.81361476		-0.00009949		-0.00088037		-0.00065494	
O		0.08130877		6.57324079		3.17874071		 0.00009221		 0.00089335		 0.00065454	
O		4.22408499		2.23908869		5.60622283		-0.00009221		-0.00089335		-0.00065454	
O		0.08125676		2.27253294		3.17874487		-0.00012840		-0.00069729		 0.00036414	
O		4.22413596		6.53979654		5.60621763		 0.00012840		 0.00069729		-0.00036414	
O		2.67365803		6.73403266		2.97135294		-0.00012243		-0.00068448		 0.00036562	
O		1.63173573		2.07829578		5.81360956		 0.00012243		 0.00068448		-0.00036562	
H		1.54812275		-0.00881423		1.72941684		-0.00059347		 0.00004573		 0.00013465	
H		2.75727101		8.82114371		7.05554566		 0.00059347		-0.00004573		-0.00013465	
H		4.14052298		4.45268600		1.52202491		-0.00055874		 0.00004540		 0.00049850	
H		0.16487078		4.35964295		7.26293759		 0.00055874		-0.00004540		-0.00049850	
