# total energy = -92495.5988408 eV

CRYSTAL
PRIMVEC
		18.49999946		0.00000000		0.00000000
		0.00000000		17.89998897		0.71600548
		0.00000000		0.21080749		5.27000235
PRIMECORD
   164 1
Mg		2.40499993		3.12310146		2.12431979		 0.00009050		 0.00050449		 0.00003541
Mg		16.09499953		14.98768576		3.86168064		-0.00009050		-0.00050449		-0.00003541
Mg		6.84499980		15.04249386		5.23187940		 0.00026216		-0.00046514		 0.00003041
Mg		11.65499966		3.06829336		0.75411918		-0.00026216		 0.00046514		-0.00003041
Mg		16.09499953		12.12368974		3.74711939		 0.00026216		 0.00046514		-0.00003041
Mg		2.40499993		5.98709932		2.23887918		-0.00026216		-0.00046514		 0.00003041
Mg		11.65499966		5.93229123		0.86868042		 0.00009050		-0.00050449		-0.00003541
Mg		6.84499980		12.17849784		5.11732000		-0.00009050		 0.00050449		 0.00003541
Mg		2.40499993		1.61539405		4.64217896		-0.00042808		-0.00015599		 0.00008059
Mg		16.09499953		16.49539502		1.34381961		 0.00042808		 0.00015599		-0.00008059
Mg		6.84499980		16.54598696		2.60862017		-0.00027887		 0.00020832		 0.00015260
Mg		11.65499966		1.56480210		3.37738025		 0.00027887		-0.00020832		-0.00015260
Mg		16.09499953		10.40939839		1.10037997		-0.00027887		-0.00020832		-0.00015260
Mg		2.40499993		7.70139252		4.88562046		 0.00027887		 0.00020832		 0.00015260
Mg		11.65499966		7.65080058		3.62081989		-0.00042808		 0.00015599		-0.00008059
Mg		6.84499980		10.45999034		2.36518053		 0.00042808		-0.00015599		 0.00008059
Mg		2.40499993		17.62209493		2.70427997		-0.00004893		-0.00051005		-0.00019867
Mg		16.09499953		0.48869599		3.28172045		 0.00004893		 0.00051005		 0.00019867
Mg		6.84499980		0.54350408		4.65191921		-0.00064710		-0.00037846		-0.00051424
Mg		11.65499966		17.56728683		1.33407936		 0.00064710		 0.00037846		 0.00051424
Mg		16.09499953		8.72269054		3.61107964		-0.00064710		 0.00037846		 0.00051424
Mg		2.40499993		9.38809852		2.37492078		 0.00064710		-0.00037846		-0.00051424
Mg		11.65499966		9.33329043		1.00472017		-0.00004893		 0.00051005		 0.00019867
Mg		6.84499980		8.77749864		4.98128025		 0.00004893		-0.00051005		-0.00019867
Mg		2.40499993		4.65839421		4.76389971		-0.00001847		 0.00012893		 0.00049378
Mg		16.09499953		13.45239671		1.22210071		 0.00001847		-0.00012893		-0.00049378
Mg		6.84499980		13.50298865		2.48689943		 0.00001847		 0.00012893		 0.00049378
Mg		11.65499966		4.60780226		3.49909915		-0.00001847		-0.00012893		-0.00049378
Si		0.55499998		14.73912347		2.11541944		 0.00022886		 0.00003258		 0.00029421
Si		17.94500132		3.37166560		3.87057914		-0.00022886		-0.00003258		-0.00029421
Si		8.69499974		3.38853020		4.29217932		-0.00043084		 0.00014603		 0.00001551
Si		9.80499786		14.72225887		1.69381925		 0.00043084		-0.00014603		-0.00001551
Si		17.94500132		5.87766443		3.97081953		-0.00043084		-0.00014603		-0.00001551
Si		0.55499998		12.23312464		2.01517904		 0.00043084		 0.00014603		 0.00001551
Si		9.80499786		12.21626004		1.59358070		 0.00022886		-0.00003258		-0.00029421
Si		8.69499974		5.89452903		4.39241972		-0.00022886		 0.00003258		 0.00029421
Si		0.55499998		16.63452241		4.82201931		-0.00039521		 0.00000126		 0.00018422
Si		17.94500132		1.47626666		1.16397927		 0.00039521		-0.00000126		-0.00018422
Si		8.69499974		1.49313126		1.58557945		 0.00006358		 0.00022122		-0.00016721
Si		9.80499786		16.61765781		4.40041912		-0.00006358		-0.00022122		 0.00016721
Si		17.94500132		7.56226328		1.40742076		 0.00006358		-0.00022122		 0.00016721
Si		0.55499998		10.54852579		4.57857967		-0.00006358		 0.00022122		-0.00016721
Si		9.80499786		10.53166119		4.15697948		-0.00039521		-0.00000126		-0.00018422
Si		8.69499974		7.57912788		1.82901910		 0.00039521		 0.00000126		 0.00018422
Si		4.06999988		16.47642327		0.86952032		 0.00015543		-0.00003564		 0.00010397
Si		14.42999773		1.63436765		5.11648010		-0.00015543		 0.00003564		-0.00010397
Si		5.17999985		1.54583035		2.90307911		 0.00057789		-0.00001395		-0.00002504
Si		13.32000146		16.56495871		3.08291946		-0.00057789		 0.00001395		 0.00002504
Si		14.42999773		7.72036427		5.35991974		 0.00057789		 0.00001395		 0.00002504
Si		4.06999988		10.39042480		0.62608068		-0.00057789		-0.00001395		-0.00002504
Si		13.32000146		10.47896209		2.83947982		 0.00015543		 0.00003564		-0.00010397
Si		5.17999985		7.63182698		3.14652061		-0.00015543		-0.00003564		 0.00010397
Si		4.06999988		14.79182442		3.43291910		-0.00000825		-0.00000468		 0.00031567
Si		14.42999773		3.31896650		2.55307948		 0.00000825		 0.00000468		-0.00031567
Si		5.17999985		3.23042921		0.33968034		-0.00017115		 0.00010245		 0.00008742
Si		13.32000146		14.88035986		5.64632008		 0.00017115		-0.00010245		-0.00008742
Si		14.42999773		5.82496533		2.65331987		-0.00017115		-0.00010245		-0.00008742
Si		4.06999988		12.28582374		3.33268055		 0.00017115		 0.00010245		 0.00008742
Si		13.32000146		12.37436104		5.54607969		-0.00000825		 0.00000468		-0.00031567
Si		5.17999985		5.73642803		0.43992074		 0.00000825		-0.00000468		 0.00031567
O		1.10999997		1.29515906		1.10412067		 0.00025395		 0.00024680		 0.00017181
O		17.38999949		16.81563001		4.88187976		-0.00025395		-0.00024680		-0.00017181
O		8.13999976		16.79455111		4.35487952		 0.00001837		-0.00021145		-0.00038058
O		10.35999970		1.31623981		1.63111905		-0.00001837		 0.00021145		 0.00038058
O		17.38999949		10.37163435		4.62411926		 0.00001837		 0.00021145		 0.00038058
O		1.10999997		7.73915657		1.36187931		-0.00001837		-0.00021145		-0.00038058
O		10.35999970		7.76023547		1.88887954		 0.00025395		-0.00024680		-0.00017181
O		8.13999976		10.35055360		4.09711903		-0.00025395		 0.00024680		 0.00017181
O		1.10999997		3.36955845		3.81788004		-0.00047712		-0.00038080		 0.00015505
O		17.38999949		14.74123247		2.16812039		 0.00047712		 0.00038080		-0.00015505
O		8.13999976		14.72015172		1.64112015		 0.00050729		-0.00032381		-0.00008885
O		10.35999970		3.39063735		4.34488027		-0.00050729		 0.00032381		 0.00008885
O		17.38999949		12.23523179		2.06787999		 0.00050729		 0.00032381		 0.00008885
O		1.10999997		5.87555728		3.91812044		-0.00050729		-0.00032381		-0.00008885
O		10.35999970		5.89663618		4.44512067		-0.00047712		 0.00038080		-0.00015505
O		8.13999976		12.21415289		1.54087975		 0.00047712		-0.00038080		 0.00015505
O		1.10999997		13.46715230		1.59099995		-0.00005669		 0.00017563		-0.00028388
O		17.38999949		4.64363861		4.39500047		 0.00005669		-0.00017563		 0.00028388
O		8.13999976		4.62255786		3.86800024		 0.00005669		 0.00017563		-0.00028388
O		10.35999970		13.48823305		2.11800019		-0.00005669		-0.00017563		 0.00028388
O		1.10999997		4.51715782		1.23299906		 0.00022455		-0.00010709		-0.00020778
O		17.38999949		13.59363310		4.75299951		-0.00022455		 0.00010709		 0.00020778
O		8.13999976		13.57255235		4.22599928		-0.00022455		-0.00010709		-0.00020778
O		10.35999970		4.53823857		1.75999930		 0.00022455		 0.00010709		 0.00020778
O		1.10999997		0.14755970		3.68899979		 0.00014386		-0.00011112		 0.00020035
O		17.38999949		0.06324040		1.58100070		-0.00014386		 0.00011112		-0.00020035
O		8.13999976		0.04215965		1.05400047		-0.00031450		 0.00046569		 0.00007373
O		10.35999970		0.16864045		4.21600003		 0.00031450		-0.00046569		-0.00007373
O		17.38999949		9.01323489		1.93899974		-0.00031450		-0.00046569		-0.00007373
O		1.10999997		9.09755418		4.04700068		 0.00031450		 0.00046569		 0.00007373
O		10.35999970		9.11863493		4.57399907		 0.00014386		 0.00011112		-0.00020035
O		8.13999976		8.99215414		1.41199951		-0.00014386		-0.00011112		 0.00020035
O		0.92499997		15.58353004		0.88642007		-0.00061289		 0.00027980		 0.00010872
O		17.57499948		2.52725903		5.09958035		 0.00061289		-0.00027980		-0.00010872
O		8.32499976		2.44293973		2.99157941		-0.00007124		 0.00017542		-0.00008213
O		10.17499970		15.66785119		2.99441916		 0.00007124		-0.00017542		 0.00008213
O		17.57499948		6.82325490		5.27141945		-0.00007124		-0.00017542		 0.00008213
O		0.92499997		11.28753417		0.71457913		 0.00007124		 0.00017542		-0.00008213
O		10.17499970		11.37185347		2.82258007		-0.00061289		-0.00027980		-0.00010872
O		8.32499976		6.73893560		3.16342036		 0.00061289		 0.00027980		 0.00010872
O		0.92499997		15.68682294		3.46871845		 0.00042647		 0.00019911		 0.00015874
O		17.57499948		2.42396613		2.51728013		-0.00042647		-0.00019911		-0.00015874
O		8.32499976		2.33543068		0.30387914		-0.00024068		-0.00012727		-0.00021274
O		10.17499970		15.77535839		5.68211943		 0.00024068		 0.00012727		 0.00021274
O		17.57499948		6.71996385		2.68911922		-0.00024068		 0.00012727		 0.00021274
O		0.92499997		11.39082522		3.29687935		 0.00024068		-0.00012727		-0.00021274
O		10.17499970		11.47936251		5.51028034		 0.00042647		-0.00019911		-0.00015874
O		8.32499976		6.63142841		0.47572009		-0.00042647		 0.00019911		 0.00015874
O		3.51499990		3.23253821		0.39237944		-0.00017777		-0.00005911		 0.00009051
O		14.98499956		14.87825086		5.59361914		 0.00017777		 0.00005911		-0.00009051
O		5.73499983		14.79393157		3.48562005		-0.00011302		-0.00039088		 0.00076067
O		12.76499963		3.31685750		2.50038038		 0.00011302		 0.00039088		-0.00076067
O		14.98499956		12.37225204		5.49338059		-0.00011302		 0.00039088		-0.00076067
O		3.51499990		5.73853703		0.49261984		 0.00011302		-0.00039088		 0.00076067
O		12.76499963		5.82285633		2.60062077		-0.00017777		 0.00005911		-0.00009051
O		5.73499983		12.28793274		3.38537965		 0.00017777		-0.00005911		 0.00009051
O		3.51499990		1.37104606		3.00131966		 0.00085327		-0.00052257		-0.00041915
O		14.98499956		16.73974301		2.98468076		-0.00085327		 0.00052257		 0.00041915
O		5.73499983		16.65963801		0.98207987		 0.00019218		-0.00016993		-0.00015231
O		12.76499963		1.45115106		5.00392055		-0.00019218		 0.00016993		 0.00015231
O		14.98499956		10.29574550		2.72692027		 0.00019218		 0.00016993		 0.00015231
O		3.51499990		7.81504357		3.25908015		-0.00019218		-0.00016993		-0.00015231
O		12.76499963		7.89514857		5.26167920		 0.00085327		 0.00052257		 0.00041915
O		5.73499983		10.21564235		0.72431938		-0.00085327		-0.00052257		-0.00041915
O		3.51499990		0.01053945		0.26349919		-0.00025162		-0.00034038		 0.00029051
O		14.98499956		0.20026064		5.00649945		 0.00025162		 0.00034038		-0.00029051
O		5.73499983		0.11593950		2.89850036		 0.00016838		-0.00011742		 0.00012935
O		12.76499963		0.09486060		2.37150013		-0.00016838		 0.00011742		-0.00012935
O		14.98499956		9.15025513		5.36450034		 0.00016838		 0.00011742		-0.00012935
O		3.51499990		8.96053394		0.62150008		-0.00016838		-0.00011742		 0.00012935
O		12.76499963		9.04485508		2.72949917		-0.00025162		 0.00034038		-0.00029051
O		5.73499983		9.06593398		3.25649940		 0.00025162		-0.00034038		 0.00029051
O		3.51499990		13.51985325		2.90849961		 0.00066173		-0.00009454		 0.00020826
O		14.98499956		4.59093767		3.07750081		-0.00066173		 0.00009454		-0.00020826
O		5.73499983		4.67525696		5.18549990		-0.00066173		-0.00009454		 0.00020826
O		12.76499963		13.43553211		0.80050053		 0.00066173		 0.00009454		-0.00020826
O		3.51499990		4.59093767		3.07750081		-0.00024862		 0.00030567		-0.00052092
O		14.98499956		13.51985325		2.90849961		 0.00024862		-0.00030567		 0.00052092
O		5.73499983		13.43553211		0.80050053		 0.00024862		 0.00030567		-0.00052092
O		12.76499963		4.67525696		5.18549990		-0.00024862		-0.00030567		 0.00052092
O		3.69999989		15.63623099		2.20391974		 0.00001834		-0.00023950		 0.00006853
O		14.79999957		2.47455808		3.78208069		-0.00001834		 0.00023950		-0.00006853
O		5.54999984		2.49563883		4.30907907		-0.00018475		 0.00002930		 0.00020745
O		12.94999962		15.61515024		1.67691950		 0.00018475		-0.00002930		-0.00020745
O		14.79999957		6.77055580		3.95391978		-0.00018475		-0.00002930		-0.00020745
O		3.69999989		11.34023327		2.03208064		 0.00018475		 0.00002930		 0.00020745
O		12.94999962		11.31915437		1.50508041		 0.00001834		 0.00023950		-0.00006853
O		5.54999984		6.79163655		4.48092002		-0.00001834		-0.00023950		 0.00006853
O		3.69999989		15.74163104		4.83891906		-0.00002940		-0.00025901		 0.00053566
O		14.79999957		2.36915803		1.14707952		 0.00002940		 0.00025901		-0.00053566
O		5.54999984		2.39023878		1.67407975		-0.00003529		 0.00019489		-0.00016539
O		12.94999962		15.72055029		4.31192067		 0.00003529		-0.00019489		 0.00016539
O		14.79999957		6.66515575		1.31892046		-0.00003529		-0.00019489		 0.00016539
O		3.69999989		11.44563331		4.66707996		 0.00003529		 0.00019489		-0.00016539
O		12.94999962		11.42455441		4.14007973		-0.00002940		 0.00025901		-0.00053566
O		5.54999984		6.68623650		1.84592070		 0.00002940		-0.00025901		 0.00053566
H		17.94500132		0.03162020		0.79049943		-0.00024847		 0.00001059		-0.00060658
H		0.55499813		0.17917989		4.47949922		 0.00024847		-0.00001059		 0.00060658
H		9.80499786		0.13702025		3.42550060		 0.00012281		 0.00009240		 0.00045064
H		8.69500159		0.07377985		1.84449990		-0.00012281		-0.00009240		-0.00045064
H		0.55499813		9.12917438		4.83750011		 0.00012281		-0.00009240		-0.00045064
H		17.94500132		8.98161469		1.14850032		-0.00012281		 0.00009240		 0.00045064
H		8.69500159		9.02377434		2.20250079		-0.00024847		-0.00001059		 0.00060658
H		9.80499786		9.08701473		3.78349964		 0.00024847		 0.00001059		-0.00060658
