# total energy = -22468.3349442 eV	

CRYSTAL	
PRIMVEC	
		10.71366973		0.00000000		0.00000000	
		0.00000000		8.91739444		0.00000000	
		-1.57890565		0.00000000		5.05028463	
PRIMCOORD
   40 1	
Mg		-0.39472695		8.09771299		1.26257062		 0.00000007		-0.00022500		-0.00000007	
Mg		-1.18418084		0.81968787		3.78771187		-0.00000007		 0.00022500		 0.00000007	
Mg		4.96210792		3.63901256		1.26257062		 0.00000007		-0.00017424		-0.00000010	
Mg		4.17265402		5.27838830		3.78771187		-0.00000007		 0.00017424		 0.00000010	
Ca		-0.39472695		2.68841757		1.26257062		 0.00000008		 0.00060052		-0.00000002	
Ca		-1.18418084		6.22898329		3.78771187		-0.00000008		-0.00060052		 0.00000002	
Ca		4.96210792		7.14711801		1.26257062		 0.00000008		 0.00064752		-0.00000001	
Ca		4.17265402		1.77028179		3.78771187		-0.00000008		-0.00064752		 0.00000001	
Si		2.70400703		0.83101329		1.15833304		-0.00031274		 0.00027222		-0.00058625	
Si		6.43075491		8.08638757		3.89194945		 0.00031274		-0.00027222		 0.00058625	
Si		7.22020880		0.83101329		1.36680927		 0.00031235		 0.00027265		 0.00058610	
Si		1.91455314		8.08638757		3.68347429		-0.00031235		-0.00027265		-0.00058610	
Si		8.06084190		5.28971265		1.15833304		-0.00035838		 0.00023803		-0.00060220	
Si		1.07392004		3.62768821		3.89194945		 0.00035838		-0.00023803		 0.00060220	
Si		1.86337394		5.28971265		1.36680927		 0.00035777		 0.00023865		 0.00060194	
Si		7.27138800		3.62768821		3.68347429		-0.00035777		-0.00023865		-0.00060194	
O		1.01387421		0.77492187		0.71643274		-0.00008091		-0.00013996		-0.00041773	
O		8.12088773		8.14247792		4.33384975		 0.00008091		 0.00013996		 0.00041773	
O		8.91034163		0.77492187		1.80870744		 0.00008081		-0.00014013		 0.00041775	
O		0.22441924		8.14247792		3.24157505		-0.00008081		 0.00014013		-0.00041775	
O		6.37070907		5.23362231		0.71643274		-0.00006254		-0.00016337		-0.00041355	
O		2.76405287		3.68377749		4.33384975		 0.00006254		 0.00016337		 0.00041355	
O		3.55350783		5.23362231		1.80870744		 0.00006261		-0.00016365		 0.00041368	
O		5.58125518		3.68377749		3.24157505		-0.00006261		 0.00016365		-0.00041368	
O		3.36527830		2.23104351		1.60477809		 0.00042023		-0.00013519		 0.00034505	
O		5.76948364		6.68635628		3.44550440		-0.00042023		 0.00013519		-0.00034505	
O		6.55893754		2.23104351		0.92036423		-0.00042011		-0.00013515		-0.00034465	
O		2.57582440		6.68635628		4.12991934		 0.00042011		 0.00013515		 0.00034465	
O		8.72211316		6.68974502		1.60477809		 0.00045580		-0.00013886		 0.00033472	
O		0.41264770		2.22765585		3.44550440		-0.00045580		 0.00013886		-0.00033472	
O		1.20210267		6.68974502		0.92036423		-0.00045563		-0.00013906		-0.00033431	
O		7.93265927		2.22765585		4.12991934		 0.00045563		 0.00013906		 0.00033431	
O		2.18591325		0.15551856		5.02720310		 0.00061434		-0.00033783		 0.00043964	
O		6.94884869		8.76188124		0.02308046		-0.00061434		 0.00033783		-0.00043964	
O		6.15939479		0.15551856		2.54822063		-0.00061451		-0.00033822		-0.00043961	
O		2.97536715		8.76188124		2.50206186		 0.00061451		 0.00033822		 0.00043961	
O		7.54274812		4.61422006		5.02720310		 0.00061687		-0.00033615		 0.00043714	
O		1.59201382		4.30318080		0.02308046		-0.00061687		 0.00033615		-0.00043714	
O		0.80255993		4.61422006		2.54822063		-0.00061690		-0.00033640		-0.00043716	
O		8.33220201		4.30318080		2.50206186		 0.00061690		 0.00033640		 0.00043716	
