# total energy = -22469.1131652 eV	

CRYSTAL	
PRIMVEC	
		10.47017784		0.00000000		0.00000000	
		0.00000000		8.91739811		0.00000000	
		-1.54302152		0.00000000		5.05027981	
PRIMCOORD
   40 1	
Mg		-0.38575590		8.09771302		1.26257048		 0.00000002		-0.00017374		-0.00000005	
Mg		-1.15726771		0.81968824		3.78771143		-0.00000002		 0.00017374		 0.00000005	
Mg		4.84933302		3.63901292		1.26257048		 0.00000003		-0.00014719		-0.00000005	
Mg		4.07782121		5.27838834		3.78771143		-0.00000003		 0.00014719		 0.00000005	
Ca		-0.38575590		2.68841814		1.26257048		-0.00000000		 0.00000436		-0.00000002	
Ca		-1.15726771		6.22898312		3.78771143		0.00000000		-0.00000436		 0.00000002	
Ca		4.84933302		7.14711825		1.26257048		-0.00000002		-0.00001809		-0.00000005	
Ca		4.07782121		1.77028196		3.78771143		 0.00000002		 0.00001809		 0.00000005	
Si		2.64255248		0.83101278		1.15833253		-0.00019950		 0.00056320		-0.00026723	
Si		6.28460070		8.08638743		3.89195043		 0.00019950		-0.00056320		 0.00026723	
Si		7.05611251		0.83101278		1.36680947		 0.00019909		 0.00056367		 0.00026698	
Si		1.87103963		8.08638743		3.68347348		-0.00019909		-0.00056367		-0.00026698	
Si		7.87764140		5.28971288		1.15833253		-0.00052295		 0.00039518		-0.00039654	
Si		1.04951283		3.62768837		3.89195043		 0.00052295		-0.00039518		 0.00039654	
Si		1.82102463		5.28971288		1.36680947		 0.00052246		 0.00039563		 0.00039629	
Si		7.10612855		3.62768837		3.68347348		-0.00052246		-0.00039563		-0.00039629	
O		0.99083062		0.77492194		0.71643344		-0.00032602		-0.00025071		-0.00002615	
O		7.93632256		8.14247827		4.33384952		 0.00032602		 0.00025071		 0.00002615	
O		8.70783436		0.77492194		1.80870752		 0.00032623		-0.00025076		 0.00002629	
O		0.21931882		8.14247827		3.24157544		-0.00032623		 0.00025076		-0.00002629	
O		6.22591954		5.23362205		0.71643344		-0.00015544		-0.00022729		 0.00002979	
O		2.70123364		3.68377816		4.33384952		 0.00015544		 0.00022729		-0.00002979	
O		3.47274544		5.23362205		1.80870752		 0.00015569		-0.00022730		-0.00002959	
O		5.45440773		3.68377816		3.24157544		-0.00015569		 0.00022730		 0.00002959	
O		3.28879489		2.23104413		1.60477777		 0.00063956		 0.00027613		 0.00034743	
O		5.63835934		6.68635608		3.44550518		-0.00063956		-0.00027613		-0.00034743	
O		6.40987114		2.23104413		0.92036423		-0.00063943		 0.00027581		-0.00034730	
O		2.51728308		6.68635608		4.12991872		 0.00063943		-0.00027581		 0.00034730	
O		8.52388276		6.68974528		1.60477777		 0.00075257		 0.00042585		 0.00040263	
O		0.40327042		2.22765598		3.44550518		-0.00075257		-0.00042585		-0.00040263	
O		1.17478222		6.68974528		0.92036423		-0.00075239		 0.00042546		-0.00040247	
O		7.75237096		2.22765598		4.12991872		 0.00075239		-0.00042546		 0.00040247	
O		2.13623248		0.15551879		5.02720249		 0.00043458		-0.00011921		 0.00028893	
O		6.79092070		8.76188038		0.02308046		-0.00043458		 0.00011921		-0.00028893	
O		6.01940889		0.15551879		2.54822141		-0.00043458		-0.00011934		-0.00028886	
O		2.90774533		8.76188038		2.50206154		 0.00043458		 0.00011934		 0.00028886	
O		7.37132140		4.61421994		5.02720249		 0.00048241		-0.00012016		 0.00030966	
O		1.55583178		4.30318132		0.02308046		-0.00048241		 0.00012016		-0.00030966	
O		0.78431997		4.61421994		2.54822141		-0.00048235		-0.00012022		-0.00030953	
O		8.14283425		4.30318132		2.50206154		 0.00048235		 0.00012022		 0.00030953	
