# total energy = -24714.2464179 eV

CRYSTAL
PRIMVEC
		9.03899958		0.00000000		0.00000000
		0.00000000		8.26025361		0.00000000
		0.00000000		0.00000000		5.08900196
PRIMECORD
   40 1
O		1.09371895		0.71368596		0.29974227		 0.00029864		-0.00069283		-0.00075796
O		1.09371895		7.54656403		2.84424144		 0.00029864		 0.00069283		-0.00075796
O		5.61321874		4.84381096		2.24475781		 0.00029864		-0.00069283		 0.00075796
O		5.61321874		3.41643904		4.78925789		 0.00029864		 0.00069283		 0.00075796
O		3.40679894		2.03202134		0.53739835		 0.00049733		 0.00012313		-0.00061752
O		3.40679894		6.22822775		3.08189843		 0.00049733		-0.00012313		-0.00061752
O		7.92629783		6.16214543		2.00710172		 0.00049733		 0.00012313		 0.00061752
O		7.92629783		2.09810275		4.55160180		 0.00049733		-0.00012313		 0.00061752
O		3.23415405		7.93727389		1.40456382		-0.00041925		-0.00058558		-0.00066999
O		3.23415405		0.32297611		3.94906389		-0.00041925		 0.00058558		-0.00066999
O		7.75365384		3.80714889		1.13993626		-0.00041925		-0.00058558		 0.00066999
O		7.75365384		4.45310111		3.68443543		-0.00041925		 0.00058558		 0.00066999
O		7.93985633		7.50608830		4.45338403		-0.00012307		 0.00049847		 0.00024108
O		7.93985633		0.75416079		1.90888395		-0.00012307		-0.00049847		 0.00024108
O		3.42035744		3.37596420		3.18011620		-0.00012307		 0.00049847		-0.00024108
O		3.42035744		4.88428579		0.63561612		-0.00012307		-0.00049847		-0.00024108
O		5.61683344		6.28026798		4.87882443		-0.00002425		-0.00027080		-0.00014554
O		5.61683344		1.97998201		2.33432345		-0.00002425		 0.00027080		-0.00014554
O		1.09733455		2.15014299		2.75467580		-0.00002425		-0.00027080		 0.00014554
O		1.09733455		6.11010701		0.21017572		-0.00002425		 0.00027080		 0.00014554
O		5.84280843		7.86127850		2.86103590		-0.00043585		 0.00016333		-0.00024196
O		5.84280843		0.39896969		0.31653582		-0.00043585		-0.00016333		-0.00024196
O		1.32330863		3.73115440		4.77246342		-0.00043585		 0.00016333		 0.00024196
O		1.32330863		4.52909469		2.22796425		-0.00043585		-0.00016333		 0.00024196
Si		2.68187118		0.73268413		0.34808826		 0.00011229		-0.00003686		-0.00017505
Si		2.68187118		7.52756586		2.89258743		 0.00011229		 0.00003686		-0.00017505
Si		7.20137097		4.86280913		2.19641272		 0.00011229		-0.00003686		 0.00017505
Si		7.20137097		3.39744087		4.74091189		 0.00011229		 0.00003686		 0.00017505
Si		6.34447381		7.52013038		4.38671779		-0.00001896		 0.00002851		-0.00046346
Si		6.34447381		0.74011871		1.84221771		-0.00001896		-0.00002851		-0.00046346
Si		1.82497402		3.39000629		3.24678153		-0.00001896		 0.00002851		 0.00046346
Si		1.82497402		4.87024280		0.70228236		-0.00001896		-0.00002851		 0.00046346
Mg		9.01640118		0.79381037		3.64372378		 0.00074578		 0.00045950		-0.00032540
Mg		9.01640118		7.46643963		1.09922370		 0.00074578		-0.00045950		-0.00032540
Mg		4.49690139		4.92393446		3.98977555		 0.00074578		 0.00045950		 0.00032540
Mg		4.49690139		3.33631463		1.44527638		 0.00074578		-0.00045950		 0.00032540
Mg		0.05423400		2.16996822		1.09464364		-0.00063266		 0.00010029		 0.00006499
Mg		0.05423400		6.09028177		3.63914371		-0.00063266		-0.00010029		 0.00006499
Mg		4.57373379		6.30009141		1.44985553		-0.00063266		 0.00010029		-0.00006499
Mg		4.57373379		1.96015677		3.99435561		-0.00063266		-0.00010029		-0.00006499
