# total energy = -24716.1704447 eV

CRYSTAL
PRIMVEC
		9.03899958		0.00000000		0.00000000
		0.00000000		9.34712100		0.00000000
		0.00000000		0.00000000		5.08900196
PRIMECORD
   40 1
O		1.09371895		0.80759213		0.29974227		-0.00024706		-0.00020104		-0.00030828
O		1.09371895		8.53953248		2.84424144		-0.00024706		 0.00020104		-0.00030828
O		5.61321874		5.48115353		2.24475781		-0.00024706		-0.00020104		 0.00030828
O		5.61321874		3.86597108		4.78925789		-0.00024706		 0.00020104		 0.00030828
O		3.40679894		2.29939314		0.53739835		 0.00019275		-0.00015370		 0.00021593
O		3.40679894		7.04773147		3.08189843		 0.00019275		 0.00015370		 0.00021593
O		7.92629783		6.97295454		2.00710172		 0.00019275		-0.00015370		-0.00021593
O		7.92629783		2.37417007		4.55160180		 0.00019275		 0.00015370		-0.00021593
O		3.23415405		8.98165165		1.40456382		-0.00022376		 0.00043963		-0.00059809
O		3.23415405		0.36547206		3.94906389		-0.00022376		-0.00043963		-0.00059809
O		7.75365384		4.30809024		1.13993626		-0.00022376		 0.00043963		 0.00059809
O		7.75365384		5.03903437		3.68443543		-0.00022376		-0.00043963		 0.00059809
O		7.93985633		8.49373187		4.45338403		 0.00044032		 0.00029381		-0.00011074
O		7.93985633		0.85339274		1.90888395		 0.00044032		-0.00029381		-0.00011074
O		3.42035744		3.82016957		3.18011620		 0.00044032		 0.00029381		 0.00011074
O		3.42035744		5.52695505		0.63561612		 0.00044032		-0.00029381		 0.00011074
O		5.61683344		7.10661875		4.87882443		-0.00013245		 0.00029467		-0.00024635
O		5.61683344		2.24050587		2.33432345		-0.00013245		-0.00029467		-0.00024635
O		1.09733455		2.43305554		2.75467580		-0.00013245		 0.00029467		 0.00024635
O		1.09733455		6.91406727		0.21017572		-0.00013245		-0.00029467		 0.00024635
O		5.84280843		8.89565732		2.86103590		-0.00029467		 0.00066641		-0.00019459
O		5.84280843		0.45146639		0.31653582		-0.00029467		-0.00066641		-0.00019459
O		1.32330863		4.22209591		4.77246342		-0.00029467		 0.00066641		 0.00019459
O		1.32330863		5.12502870		2.22796425		-0.00029467		-0.00066641		 0.00019459
Si		2.68187118		0.82908958		0.34808826		-0.00008387		 0.00015210		-0.00091283
Si		2.68187118		8.51803503		2.89258743		-0.00008387		-0.00015210		-0.00091283
Si		7.20137097		5.50265189		2.19641272		-0.00008387		 0.00015210		 0.00091283
Si		7.20137097		3.84447182		4.74091189		-0.00008387		-0.00015210		 0.00091283
Si		6.34447381		8.50962153		4.38671779		 0.00002973		-0.00047319		-0.00053586
Si		6.34447381		0.83750308		1.84221771		 0.00002973		 0.00047319		-0.00053586
Si		1.82497402		3.83606013		3.24678153		 0.00002973		-0.00047319		 0.00053586
Si		1.82497402		5.51106449		0.70228236		 0.00002973		 0.00047319		 0.00053586
Mg		9.01640118		0.89825872		3.64372378		-0.00022527		 0.00001238		 0.00018756
Mg		9.01640118		8.44886590		1.09922370		-0.00022527		-0.00001238		 0.00018756
Mg		4.49690139		5.57182103		3.98977555		-0.00022527		 0.00001238		-0.00018756
Mg		4.49690139		3.77530359		1.44527638		-0.00022527		-0.00001238		-0.00018756
Mg		0.05423400		2.45549033		1.09464364		 0.00054428		 0.00033086		-0.00017175
Mg		0.05423400		6.89163428		3.63914371		 0.00054428		-0.00033086		-0.00017175
Mg		4.57373379		7.12905174		1.44985553		 0.00054428		 0.00033086		 0.00017175
Mg		4.57373379		2.21807288		3.99435561		 0.00054428		-0.00033086		 0.00017175
