# total energy = -24716.3800489 eV

CRYSTAL
PRIMVEC
		9.03899958		0.00000000		0.00000000
		0.00000000		9.12975114		0.00000000
		0.00000000		0.00000000		5.08900196
PRIMECORD
   40 1
O		1.09371895		0.78880999		0.29974227		-0.00018769		 0.00054983		-0.00055593
O		1.09371895		8.34093843		2.84424144		-0.00018769		-0.00054983		-0.00055593
O		5.61321874		5.35368556		2.24475781		-0.00018769		 0.00054983		 0.00055593
O		5.61321874		3.77606377		4.78925789		-0.00018769		-0.00054983		 0.00055593
O		3.40679894		2.24591751		0.53739835		-0.00058154		-0.00057694		 0.00079406
O		3.40679894		6.88383091		3.08189843		-0.00058154		 0.00057694		 0.00079406
O		7.92629783		6.81079308		2.00710172		-0.00058154		-0.00057694		-0.00079406
O		7.92629783		2.31895625		4.55160180		-0.00058154		 0.00057694		-0.00079406
O		3.23415405		8.77277664		1.40456382		-0.00021440		 0.00070769		-0.00051606
O		3.23415405		0.35697269		3.94906389		-0.00021440		-0.00070769		-0.00051606
O		7.75365384		4.20790197		1.13993626		-0.00021440		 0.00070769		 0.00051606
O		7.75365384		4.92184736		3.68443543		-0.00021440		-0.00070769		 0.00051606
O		7.93985633		8.29620262		4.45338403		 0.00032746		-0.00022450		 0.00035876
O		7.93985633		0.83354581		1.90888395		 0.00032746		 0.00022450		 0.00035876
O		3.42035744		3.73132886		3.18011620		 0.00032746		-0.00022450		-0.00035876
O		3.42035744		5.39842047		0.63561612		 0.00032746		 0.00022450		-0.00035876
O		5.61683344		6.94134878		4.87882443		 0.00019826		 0.00064050		-0.00024065
O		5.61683344		2.18840055		2.33432345		 0.00019826		-0.00064050		-0.00024065
O		1.09733455		2.37647411		2.75467580		 0.00019826		 0.00064050		 0.00024065
O		1.09733455		6.75327612		0.21017572		 0.00019826		-0.00064050		 0.00024065
O		5.84280843		8.68878264		2.86103590		-0.00005604		 0.00074108		-0.00055327
O		5.84280843		0.44096669		0.31653582		-0.00005604		-0.00074108		-0.00055327
O		1.32330863		4.12390797		4.77246342		-0.00005604		 0.00074108		 0.00055327
O		1.32330863		5.00584135		2.22796425		-0.00005604		-0.00074108		 0.00055327
Si		2.68187118		0.80980940		0.34808826		 0.00047244		-0.00037433		-0.00090761
Si		2.68187118		8.31994084		2.89258743		 0.00047244		 0.00037433		-0.00090761
Si		7.20137097		5.37468406		2.19641272		 0.00047244		-0.00037433		 0.00090761
Si		7.20137097		3.75506617		4.74091189		 0.00047244		 0.00037433		 0.00090761
Si		6.34447381		8.31172348		4.38671779		-0.00025699		 0.00006801		-0.00091086
Si		6.34447381		0.81802585		1.84221771		-0.00025699		-0.00006801		-0.00091086
Si		1.82497402		3.74684882		3.24678153		-0.00025699		 0.00006801		 0.00091086
Si		1.82497402		5.38290051		0.70228236		-0.00025699		-0.00006801		 0.00091086
Mg		9.01640118		0.87736869		3.64372378		-0.00045638		 0.00071316		 0.00007862
Mg		9.01640118		8.25238064		1.09922370		-0.00045638		-0.00071316		 0.00007862
Mg		4.49690139		5.44224335		3.98977555		-0.00045638		 0.00071316		-0.00007862
Mg		4.49690139		3.68750598		1.44527638		-0.00045638		-0.00071316		-0.00007862
Mg		0.05423400		2.39838465		1.09464364		 0.00075489		 0.00075953		-0.00061395
Mg		0.05423400		6.73136468		3.63914371		 0.00075489		-0.00075953		-0.00061395
Mg		4.57373379		6.96325931		1.44985553		 0.00075489		 0.00075953		 0.00061395
Mg		4.57373379		2.16649002		3.99435561		 0.00075489		-0.00075953		 0.00061395
