# total energy = -24706.3079493 eV

CRYSTAL
PRIMVEC
		9.20100325		1.47216462		0.00000000
		1.37935706		8.62100257		0.00000000
		-0.97849548		-0.15656151		4.80947239
PRIMECORD
   40 1
Si		2.66881098		1.19563815		1.01576014		 0.00043757		 0.00078584		-0.00012821
Si		6.93305105		8.74096287		3.79371039		-0.00043757		-0.00078584		 0.00012821
Si		6.29536246		1.77588575		1.38897513		 0.00062964		-0.00039559		 0.00024257
Si		3.30649957		8.16071527		3.42049540		-0.00062964		 0.00039559		-0.00024257
Si		7.95899207		6.24221802		1.01576014		 0.00047121		 0.00081054		-0.00011860
Si		1.64287090		3.69438300		3.79371039		-0.00047121		-0.00081054		 0.00011860
Si		2.38454309		5.35030566		1.38897513		 0.00058931		-0.00032493		 0.00019455
Si		7.21731987		4.58629536		3.42049540		-0.00058931		 0.00032493		-0.00019455
Mg		1.00466236		7.76889963		1.20236763		 0.00024012		 0.00047848		-0.00015373
Mg		-0.60379985		0.69553957		3.60710289		-0.00024012		-0.00047848		 0.00015373
Mg		4.91548173		4.19447972		1.20236763		 0.00024560		 0.00046709		-0.00015843
Mg		4.68638030		5.74212130		3.60710289		-0.00024560		-0.00046709		 0.00015843
Mg		0.13359630		2.32473813		1.20236763		-0.00012166		 0.00022272		-0.00002386
Mg		0.26726621		6.13970294		3.60710289		 0.00012166		-0.00022272		 0.00002386
Mg		5.42377552		7.37131799		1.20236763		-0.00012645		 0.00023206		-0.00003218
Mg		4.17808558		2.56528210		3.60710289		 0.00012645		-0.00023206		 0.00003218
O		1.10798439		0.94506519		0.66851635		 0.00011730		 0.00059064		 0.00071232
O		8.49387764		8.99153490		4.14095417		-0.00011730		-0.00059064		-0.00071232
O		7.85591417		2.02473395		1.73621891		 0.00038039		-0.00047085		-0.00035165
O		1.74594786		7.91186614		3.07325162		-0.00038039		 0.00047085		 0.00035165
O		6.39816361		5.99164506		0.66851635		 0.00009691		 0.00058630		 0.00070403
O		3.20369749		3.94495503		4.14095417		-0.00009691		-0.00058630		-0.00070403
O		3.94509387		5.59915386		1.73621891		 0.00039112		-0.00047102		-0.00034875
O		5.65676816		4.33744716		3.07325162		-0.00039112		 0.00047102		 0.00034875
O		3.46500669		2.55031268		1.76507591		-0.00008866		-0.00011749		-0.00010867
O		6.13685442		7.38628741		3.04439461		 0.00008866		 0.00011749		 0.00010867
O		5.90221621		2.94026565		0.63966028		 0.00016680		 0.00034301		-0.00067657
O		3.69964676		6.99633351		4.16981117		-0.00016680		-0.00034301		 0.00067657
O		8.75518684		7.59689255		1.76507591		-0.00010198		-0.00013428		-0.00011277
O		0.84667519		2.33970661		3.04439461		 0.00010198		 0.00013428		 0.00011277
O		1.99139591		6.51468556		0.63966028		 0.00020573		 0.00025773		-0.00063094
O		7.61046706		3.42191360		4.16981117		-0.00020573		-0.00025773		 0.00063094
O		2.47398592		0.91077577		4.40066626		 0.00007583		 0.00049800		-0.00065530
O		7.12787612		9.02582338		0.40880520		-0.00007583		-0.00049800		 0.00065530
O		5.42837676		1.38347935		2.81353953		 0.00091872		 0.00020106		 0.00031380
O		4.17348620		8.55312167		1.99593006		-0.00091872		-0.00020106		-0.00031380
O		7.76416607		5.95735564		4.40066626		 0.00007025		 0.00049579		-0.00065606
O		1.83769596		3.97924351		0.40880520		-0.00007025		-0.00049579		 0.00065606
O		1.51755740		4.95789926		2.81353953		 0.00092155		 0.00019634		 0.00031959
O		8.08430557		4.97870176		1.99593006		-0.00092155		-0.00019634		-0.00031959
