# total energy = -66813.7563491 eV

CRYSTAL
PRIMVEC
		18.34339916		-0.73373523		0.00000000
		-0.26925777		6.73129745		0.00000000
		0.00000000		0.00000000		10.88440628
PRIMECORD
   112 1
Ca		13.90296086		6.15722049		2.52060853		-0.00029747		-0.00009217		 0.00010320
Ca		4.17118419		-0.15965644		8.36379041		 0.00029747		 0.00009217		-0.00010320
Ca		4.17118419		-0.15965644		2.52060853		 0.00029747		 0.00009217		 0.00010320
Ca		13.90296086		6.15722049		8.36379041		-0.00029747		-0.00009217		-0.00010320
Ca		13.20883316		2.82471909		2.92159094		 0.00005046		-0.00008205		 0.00019892
Ca		4.86531373		3.17284312		7.96280984		-0.00005046		 0.00008205		-0.00019892
Ca		4.86531373		3.17284312		2.92159094		-0.00005046		 0.00008205		 0.00019892
Ca		13.20883316		2.82471909		7.96280984		 0.00005046		-0.00008205		-0.00019892
Ca		7.51287564		0.76247111		8.14849618		 0.00002424		-0.00013067		 0.00000213
Ca		10.56127126		5.23509293		2.73590276		-0.00002424		 0.00013067		-0.00000213
Ca		10.56127126		5.23509293		8.14849618		-0.00002424		 0.00013067		 0.00000213
Ca		7.51287564		0.76247111		2.73590276		 0.00002424		-0.00013067		-0.00000213
Ca		1.43902280		4.36568975		8.17810223		 0.00011652		-0.00012740		-0.00003506
Ca		16.63512409		1.63187430		2.70629671		-0.00011652		 0.00012740		 0.00003506
Ca		16.63512409		1.63187430		8.17810223		-0.00011652		 0.00012740		-0.00003506
Ca		1.43902280		4.36568975		2.70629671		 0.00011652		-0.00012740		 0.00003506
Ca		5.88797740		5.15972205		0.00000000		 0.00078099		 0.00008511		0.00000000
Ca		12.18616949		0.83784200		0.00000000		-0.00078099		-0.00008511		0.00000000
Ca		2.98603694		1.91553581		5.44219947		 0.00027742		 0.00012386		0.00000000
Ca		15.08810996		4.08202824		5.44219947		-0.00027742		-0.00012386		0.00000000
Ca		12.30398606		0.66242883		5.44219947		 0.00047368		 0.00029098		0.00000000
Ca		5.77016083		5.33513522		5.44219947		-0.00047368		-0.00029098		0.00000000
Ca		14.98397015		3.91549303		0.00000000		-0.00055327		-0.00046067		0.00000000
Ca		3.09017674		2.08207102		0.00000000		 0.00055327		 0.00046067		0.00000000
Ca		9.03707436		2.99878111		0.00000000		0.00000000		0.00000000		0.00000000
Ca		0.00000000		0.00000000		5.44219947		0.00000000		0.00000000		0.00000000
Ca		9.03707436		2.99878111		5.44219947		0.00000000		0.00000000		0.00000000
Ca		0.00000000		0.00000000		0.00000000		0.00000000		0.00000000		0.00000000
Si		7.49548504		4.53492910		8.18267339		 0.00007410		 0.00003857		-0.00020932
Si		10.57866002		1.46263311		2.70172555		-0.00007410		-0.00003857		 0.00020932
Si		10.57866002		1.46263311		8.18267339		-0.00007410		-0.00003857		-0.00020932
Si		7.49548504		4.53492910		2.70172555		 0.00007410		 0.00003857		 0.00020932
Si		1.42344048		1.41754754		8.14392502		 0.00011146		-0.00005046		 0.00022397
Si		16.65070825		4.58001651		2.74047392		-0.00011146		 0.00005046		-0.00022397
Si		16.65070825		4.58001651		8.14392502		-0.00011146		 0.00005046		 0.00022397
Si		1.42344048		1.41754754		2.74047392		 0.00011146		-0.00005046		-0.00022397
Si		11.97886285		4.46379526		5.44219947		 0.00006030		 0.00004578		0.00000000
Si		6.09528404		1.53376879		5.44219947		-0.00006030		-0.00004578		0.00000000
Si		15.27479131		0.97169250		0.00000000		 0.00026606		-0.00058382		0.00000000
Si		2.79935559		5.02587155		0.00000000		-0.00026606		 0.00058382		0.00000000
Si		6.12722524		1.65547727		0.00000000		-0.00010255		 0.00053413		-0.00000000
Si		11.94691981		4.34208678		0.00000000		 0.00010255		-0.00053413		-0.00000000
Si		2.75755794		5.15052833		5.44219947		-0.00028781		-0.00020307		0.00000000
Si		15.31658895		0.84703572		5.44219947		 0.00028781		 0.00020307		0.00000000
Mg		9.17169958		-0.36686762		5.44219947		0.00000000		0.00000000		0.00000000
Mg		-0.13462521		3.36565056		0.00000000		0.00000000		0.00000000		0.00000000
Mg		9.17169958		-0.36686762		0.00000000		0.00000000		0.00000000		0.00000000
Mg		-0.13462521		3.36565056		5.44219947		0.00000000		0.00000000		0.00000000
O		5.22654175		1.51811486		1.32789775		 0.00001555		 0.00054322		 0.00016939
O		12.84760515		4.47944919		9.55650303		-0.00001555		-0.00054322		-0.00016939
O		12.84760515		4.47944919		1.32789775		-0.00001555		-0.00054322		 0.00016939
O		5.22654175		1.51811486		9.55650303		 0.00001555		 0.00054322		-0.00016939
O		3.67213666		4.94055427		4.11430356		 0.00009297		 0.00006577		 0.00003615
O		14.40201024		1.05700795		6.77009722		-0.00009297		-0.00006577		-0.00003615
O		14.40201024		1.05700795		4.11430356		-0.00009297		-0.00006577		 0.00003615
O		3.67213666		4.94055427		6.77009722		 0.00009297		 0.00006577		-0.00003615
O		12.55351625		5.19283634		4.13933662		 0.00011332		-0.00051093		 0.00007729
O		5.52063064		0.80472771		6.74506232		-0.00011332		 0.00051093		-0.00007729
O		5.52063064		0.80472771		4.13933662		-0.00011332		 0.00051093		 0.00007729
O		12.55351625		5.19283634		6.74506232		 0.00011332		-0.00051093		-0.00007729
O		14.63987939		1.74911626		1.30286285		-0.00008275		-0.00015830		 0.00002793
O		3.43426751		4.24844595		9.58153609		 0.00008275		 0.00015830		-0.00002793
O		3.43426751		4.24844595		1.30286285		 0.00008275		 0.00015830		 0.00002793
O		14.63987939		1.74911626		9.58153609		-0.00008275		-0.00015830		-0.00002793
O		8.51569607		4.90743448		9.36711386		 0.00008937		-0.00002613		-0.00044457
O		9.55845082		1.09012957		1.51728508		-0.00008937		 0.00002613		 0.00044457
O		9.55845082		1.09012957		9.36711386		-0.00008937		 0.00002613		-0.00044457
O		8.51569607		4.90743448		1.51728508		 0.00008937		-0.00002613		 0.00044457
O		0.37011149		1.87299283		6.95948639		 0.00008024		 0.00001656		-0.00023632
O		17.70403541		4.12457122		3.92491439		-0.00008024		-0.00001656		 0.00023632
O		17.70403541		4.12457122		6.95948639		-0.00008024		-0.00001656		-0.00023632
O		0.37011149		1.87299283		3.92491439		 0.00008024		 0.00001656		 0.00023632
O		5.99900699		5.20434134		8.55731381		-0.00008204		 0.00028098		 0.00031275
O		12.07513990		0.79322271		2.32708513		 0.00008204		-0.00028098		-0.00031275
O		12.07513990		0.79322271		8.55731381		 0.00008204		-0.00028098		 0.00031275
O		5.99900699		5.20434134		2.32708513		-0.00008204		 0.00028098		-0.00031275
O		2.87107505		1.96919277		7.76928460		-0.00040393		-0.00007485		 0.00013619
O		15.20307001		4.02837128		3.11511434		 0.00040393		 0.00007485		-0.00013619
O		15.20307001		4.02837128		7.76928460		 0.00040393		 0.00007485		 0.00013619
O		2.87107505		1.96919277		3.11511434		-0.00040393		-0.00007485		-0.00013619
O		6.76359663		3.06216601		0.00000000		-0.00088465		-0.00029699		0.00000000
O		11.31055026		2.93539621		0.00000000		 0.00088465		 0.00029699		0.00000000
O		2.00643395		6.61271902		5.44219947		-0.00006455		 0.00057412		-0.00000000
O		16.06771295		-0.61515313		5.44219947		 0.00006455		-0.00057412		-0.00000000
O		7.41651047		2.99303870		7.82697115		 0.00014609		 0.00004341		 0.00002271
O		10.65763826		3.00452535		3.05742779		-0.00014609		-0.00004341		-0.00002271
O		10.65763826		3.00452535		7.82697115		-0.00014609		-0.00004341		 0.00002271
O		7.41651047		2.99303870		3.05742779		 0.00014609		 0.00004341		-0.00002271
O		1.35696591		6.59568640		8.49962726		 0.00020598		-0.00020729		 0.00013113
O		16.71718098		-0.59812235		2.38477168		-0.00020598		 0.00020729		-0.00013113
O		16.71718098		-0.59812235		8.49962726		-0.00020598		 0.00020729		 0.00013113
O		1.35696591		6.59568640		2.38477168		 0.00020598		-0.00020729		-0.00013113
O		7.26886755		0.41154014		0.00000000		 0.00033018		 0.00008302		0.00000000
O		10.80527934		5.58602208		0.00000000		-0.00033018		-0.00008302		0.00000000
O		1.71193383		3.99408208		5.44219947		 0.00061484		 0.00060651		0.00000000
O		16.36221306		2.00348013		5.44219947		-0.00061484		-0.00060651		0.00000000
O		10.36532642		4.77229157		5.44219947		-0.00021451		 0.00002512		0.00000000
O		7.70882047		1.22527248		5.44219947		 0.00021451		-0.00002512		0.00000000
O		16.86878006		1.15188978		0.00000000		 0.00029370		-0.00040394		-0.00000000
O		1.20536683		4.84567427		0.00000000		-0.00029370		 0.00040394		-0.00000000
O		12.60330517		2.94081000		5.44219947		-0.00013723		-0.00027052		0.00000000
O		5.47084173		3.05675221		5.44219947		 0.00013723		 0.00027052		0.00000000
O		14.77038138		-0.50613742		0.00000000		 0.00071418		-0.00014097		0.00000000
O		3.30376551		6.50369963		0.00000000		-0.00071418		 0.00014097		0.00000000
O		7.92353091		5.33502324		6.85281867		 0.00005427		 0.00006563		-0.00009104
O		10.15061598		0.66253898		4.03158210		-0.00005427		-0.00006563		 0.00009104
O		10.15061598		0.66253898		6.85281867		-0.00005427		-0.00006563		-0.00009104
O		7.92353091		5.33502324		4.03158210		 0.00005427		 0.00006563		 0.00009104
O		0.92991137		2.25450467		9.47378158		 0.00000521		 0.00010972		 0.00030178
O		17.14423368		3.74305938		1.41061737		-0.00000521		-0.00010972		-0.00030178
O		17.14423368		3.74305938		9.47378158		-0.00000521		-0.00010972		 0.00030178
O		0.92991137		2.25450467		1.41061737		 0.00000521		 0.00010972		-0.00030178
