# total energy = -18390.9859118 eV	

CRYSTAL	
PRIMVEC	
		11.10979961		0.00000000		0.00000000	
		0.00000000		6.22966460		0.00000000	
		0.00000000		0.00000000		4.82809672	
PRIMCOORD
   28 1	
Mg		0.00000000		0.00000000		0.00000000		-0.00000000		0.00000000		-0.00000000	
Mg		5.55489981		0.00000000		2.41404947		0.00000000		0.00000000		-0.00000000	
Mg		0.00000000		3.11483341		0.00000000		0.00000000		-0.00000000		0.00000000	
Mg		5.55489981		3.11483341		2.41404947		-0.00000000		0.00000000		0.00000000	
Ca		3.07563692		1.55741615		4.71922735		 0.00056614		0.00000000		 0.00012768	
Ca		8.03416380		4.67224845		0.10887381		-0.00056614		0.00000000		-0.00012768	
Ca		2.47926288		4.67224845		2.30517677		-0.00056614		0.00000000		 0.00012768	
Ca		8.63053673		1.55741615		2.52292439		 0.00056614		0.00000000		-0.00012768	
Si		0.90611526		1.55741615		1.98425243		-0.00035533		-0.00000000		 0.00017796	
Si		10.20368436		4.67224845		2.84384762		 0.00035533		0.00000000		-0.00017796	
Si		4.64878455		4.67224845		4.39830301		 0.00035533		0.00000000		 0.00017796	
Si		6.46101617		1.55741615		0.42979815		-0.00035533		-0.00000000		-0.00017796	
O		0.86289814		1.55741615		3.60031388		 0.00094244		-0.00000000		 0.00075630	
O		10.24690148		4.67224845		1.22778617		-0.00094244		0.00000000		-0.00075630	
O		4.69200167		4.67224845		1.18626441		-0.00094244		0.00000000		 0.00075630	
O		6.41779794		1.55741615		3.64183564		 0.00094244		-0.00000000		-0.00075630	
O		4.98841224		1.55741615		1.18771313		-0.00058333		0.00000000		 0.00049647	
O		6.12138849		4.67224845		3.64038803		 0.00058333		0.00000000		-0.00049647	
O		0.56648868		4.67224845		3.60176259		 0.00058333		0.00000000		 0.00049647	
O		10.54331204		1.55741615		1.22633745		-0.00058333		-0.00000000		-0.00049647	
O		1.63902874		0.28469639		1.31951979		-0.00030030		 0.00007276		 0.00066888	
O		9.47077088		5.94496931		3.50858026		 0.00030030		-0.00007276		-0.00066888	
O		3.91587107		5.94496931		3.73357037		 0.00030030		-0.00007276		 0.00066888	
O		7.19392854		0.28469639		1.09452968		-0.00030030		 0.00007276		-0.00066888	
O		9.47077088		3.39952758		3.50858026		 0.00030030		 0.00007276		-0.00066888	
O		1.63902874		2.83013702		1.31951979		-0.00030030		-0.00007276		 0.00066888	
O		7.19392854		2.83013702		1.09452968		-0.00030030		-0.00007276		-0.00066888	
O		3.91587107		3.39952758		3.73357037		 0.00030030		 0.00007276		 0.00066888	
