# total energy = -18391.0520021 eV	

CRYSTAL	
PRIMVEC	
		11.10979961		0.00000000		0.00000000	
		0.00000000		6.54913799		0.00000000	
		0.00000000		0.00000000		4.82809672	
PRIMCOORD
   28 1	
Mg		0.00000000		0.00000000		0.00000000		0.00000000		0.00000000		-0.00000000	
Mg		5.55489981		0.00000000		2.41404947		0.00000000		0.00000000		-0.00000000	
Mg		0.00000000		3.27456789		0.00000000		-0.00000000		0.00000000		-0.00000000	
Mg		5.55489981		3.27456789		2.41404947		0.00000000		-0.00000000		-0.00000000	
Ca		3.07563692		1.63728450		4.71922735		-0.00020747		0.00000000		 0.00010371	
Ca		8.03416380		4.91185127		0.10887381		 0.00020747		0.00000000		-0.00010371	
Ca		2.47926288		4.91185127		2.30517677		 0.00020747		-0.00000000		 0.00010371	
Ca		8.63053673		1.63728450		2.52292439		-0.00020747		0.00000000		-0.00010371	
Si		0.90611526		1.63728450		1.98425243		 0.00002393		-0.00000000		 0.00009888	
Si		10.20368436		4.91185127		2.84384762		-0.00002393		-0.00000000		-0.00009888	
Si		4.64878455		4.91185127		4.39830301		-0.00002393		0.00000000		 0.00009888	
Si		6.46101617		1.63728450		0.42979815		 0.00002393		0.00000000		-0.00009888	
O		0.86289814		1.63728450		3.60031388		 0.00044088		0.00000000		-0.00010464	
O		10.24690148		4.91185127		1.22778617		-0.00044088		0.00000000		 0.00010464	
O		4.69200167		4.91185127		1.18626441		-0.00044088		0.00000000		-0.00010464	
O		6.41779794		1.63728450		3.64183564		 0.00044088		0.00000000		 0.00010464	
O		4.98841224		1.63728450		1.18771313		-0.00031334		0.00000000		-0.00018356	
O		6.12138849		4.91185127		3.64038803		 0.00031334		-0.00000000		 0.00018356	
O		0.56648868		4.91185127		3.60176259		 0.00031334		-0.00000000		-0.00018356	
O		10.54331204		1.63728450		1.22633745		-0.00031334		0.00000000		 0.00018356	
O		1.63902874		0.29929467		1.31951979		 0.00001843		-0.00001067		-0.00074882	
O		9.47077088		6.24983888		3.50858026		-0.00001843		 0.00001067		 0.00074882	
O		3.91587107		6.24983888		3.73357037		-0.00001843		 0.00001067		-0.00074882	
O		7.19392854		0.29929467		1.09452968		 0.00001843		-0.00001067		 0.00074882	
O		9.47077088		3.57386255		3.50858026		-0.00001843		-0.00001067		 0.00074882	
O		1.63902874		2.97527211		1.31951979		 0.00001843		 0.00001067		-0.00074882	
O		7.19392854		2.97527211		1.09452968		 0.00001843		 0.00001067		 0.00074882	
O		3.91587107		3.57386255		3.73357037		-0.00001843		-0.00001067		-0.00074882	
