# total energy = -18389.8774756 eV	

CRYSTAL	
PRIMVEC	
		11.10979961		0.00000000		0.00000000	
		0.00000000		5.91019120		0.00000000	
		0.00000000		0.00000000		4.82809672	
PRIMCOORD
   28 1	
Mg		0.00000000		0.00000000		0.00000000		0.00000000		0.00000000		0.00000000	
Mg		5.55489981		0.00000000		2.41404947		0.00000000		0.00000000		0.00000000	
Mg		0.00000000		2.95509782		0.00000000		0.00000000		-0.00000000		-0.00000000	
Mg		5.55489981		2.95509782		2.41404947		0.00000000		0.00000000		-0.00000000	
Ca		3.07563692		1.47754891		4.71922735		-0.00015221		0.00000000		 0.00019906	
Ca		8.03416380		4.43264562		0.10887381		 0.00015221		-0.00000000		-0.00019906	
Ca		2.47926288		4.43264562		2.30517677		 0.00015221		0.00000000		 0.00019906	
Ca		8.63053673		1.47754891		2.52292439		-0.00015221		0.00000000		-0.00019906	
Si		0.90611526		1.47754891		1.98425243		-0.00039339		-0.00000000		-0.00010999	
Si		10.20368436		4.43264562		2.84384762		 0.00039339		0.00000000		 0.00010999	
Si		4.64878455		4.43264562		4.39830301		 0.00039339		0.00000000		-0.00010999	
Si		6.46101617		1.47754891		0.42979815		-0.00039339		0.00000000		 0.00010999	
O		0.86289814		1.47754891		3.60031388		 0.00019383		0.00000000		-0.00033732	
O		10.24690148		4.43264562		1.22778617		-0.00019383		-0.00000000		 0.00033732	
O		4.69200167		4.43264562		1.18626441		-0.00019383		-0.00000000		-0.00033732	
O		6.41779794		1.47754891		3.64183564		 0.00019383		0.00000000		 0.00033732	
O		4.98841224		1.47754891		1.18771313		-0.00045105		0.00000000		-0.00020254	
O		6.12138849		4.43264562		3.64038803		 0.00045105		-0.00000000		 0.00020254	
O		0.56648868		4.43264562		3.60176259		 0.00045105		0.00000000		-0.00020254	
O		10.54331204		1.47754891		1.22633745		-0.00045105		0.00000000		 0.00020254	
O		1.63902874		0.27009589		1.31951979		 0.00035519		 0.00001921		 0.00009525	
O		9.47077088		5.64009864		3.50858026		-0.00035519		-0.00001921		-0.00009525	
O		3.91587107		5.64009864		3.73357037		-0.00035519		-0.00001921		 0.00009525	
O		7.19392854		0.27009589		1.09452968		 0.00035519		 0.00001921		-0.00009525	
O		9.47077088		3.22519260		3.50858026		-0.00035519		 0.00001921		-0.00009525	
O		1.63902874		2.68500193		1.31951979		 0.00035519		-0.00001921		 0.00009525	
O		7.19392854		2.68500193		1.09452968		 0.00035519		-0.00001921		-0.00009525	
O		3.91587107		3.22519260		3.73357037		-0.00035519		 0.00001921		 0.00009525	
