# total energy = -18390.5733968 eV	

CRYSTAL	
PRIMVEC	
		11.10979961		0.00000000		0.00000000	
		0.00000000		6.06992790		0.00000000	
		0.00000000		0.00000000		4.82809672	
PRIMCOORD
   28 1	
Mg		0.00000000		0.00000000		0.00000000		0.00000000		0.00000000		0.00000000	
Mg		5.55489981		0.00000000		2.41404947		0.00000000		0.00000000		-0.00000000	
Mg		0.00000000		3.03496506		0.00000000		0.00000000		0.00000000		0.00000000	
Mg		5.55489981		3.03496506		2.41404947		0.00000000		-0.00000000		0.00000000	
Ca		3.07563692		1.51748309		4.71922735		-0.00022777		0.00000000		 0.00048197	
Ca		8.03416380		4.55244814		0.10887381		 0.00022777		0.00000000		-0.00048197	
Ca		2.47926288		4.55244814		2.30517677		 0.00022777		0.00000000		 0.00048197	
Ca		8.63053673		1.51748309		2.52292439		-0.00022777		0.00000000		-0.00048197	
Si		0.90611526		1.51748309		1.98425243		-0.00032388		0.00000000		 0.00065999	
Si		10.20368436		4.55244814		2.84384762		 0.00032388		0.00000000		-0.00065999	
Si		4.64878455		4.55244814		4.39830301		 0.00032388		0.00000000		 0.00065999	
Si		6.46101617		1.51748309		0.42979815		-0.00032388		0.00000000		-0.00065999	
O		0.86289814		1.51748309		3.60031388		-0.00088120		0.00000000		 0.00010569	
O		10.24690148		4.55244814		1.22778617		 0.00088120		0.00000000		-0.00010569	
O		4.69200167		4.55244814		1.18626441		 0.00088120		0.00000000		 0.00010569	
O		6.41779794		1.51748309		3.64183564		-0.00088120		0.00000000		-0.00010569	
O		4.98841224		1.51748309		1.18771313		 0.00055204		0.00000000		-0.00036529	
O		6.12138849		4.55244814		3.64038803		-0.00055204		0.00000000		 0.00036529	
O		0.56648868		4.55244814		3.60176259		-0.00055204		0.00000000		-0.00036529	
O		10.54331204		1.51748309		1.22633745		 0.00055204		0.00000000		 0.00036529	
O		1.63902874		0.27739614		1.31951979		 0.00018027		-0.00034821		 0.00034681	
O		9.47077088		5.79253398		3.50858026		-0.00018027		 0.00034821		-0.00034681	
O		3.91587107		5.79253398		3.73357037		-0.00018027		 0.00034821		 0.00034681	
O		7.19392854		0.27739614		1.09452968		 0.00018027		-0.00034821		-0.00034681	
O		9.47077088		3.31236120		3.50858026		-0.00018027		-0.00034821		-0.00034681	
O		1.63902874		2.75756892		1.31951979		 0.00018027		 0.00034821		 0.00034681	
O		7.19392854		2.75756892		1.09452968		 0.00018027		 0.00034821		-0.00034681	
O		3.91587107		3.31236120		3.73357037		-0.00018027		-0.00034821		 0.00034681	
