# total energy = -9139.61671191 eV	

CRYSTAL	
PRIMVEC	
		5.86629969		0.00000000		0.00000000	
		-2.93314984		4.61851428		0.00000000	
		0.00000000		0.00000000		7.32399890	
PRIMCOORD
   14 1	
Mg		1.95171791		0.00000000		3.33974366		-0.00023703		-0.00000000		-0.00018471	
Mg		-0.97585895		1.53657982		3.33974366		 0.00014832		 0.00010586		-0.00020957	
Mg		1.95729089		3.08193387		3.33974366		 0.00014832		-0.00010586		-0.00020957	
Si		0.00000000		3.07900893		0.56394792		-0.00015623		 0.00008936		 0.00010806	
Si		2.93314984		1.53950476		0.56394792		-0.00015623		-0.00008936		 0.00010806	
O		0.00000000		3.07900893		2.13714284		 0.00007915		 0.00047271		 0.00005023	
O		2.93314984		1.53950476		2.13714284		 0.00007915		-0.00047271		 0.00005023	
O		2.93901556		0.00000000		7.27273154		-0.00002739		0.00000000		 0.00078066	
O		-1.46950807		2.31387509		7.27273154		 0.00003241		-0.00042028		 0.00024664	
O		1.46364177		2.30463801		7.27273154		 0.00003241		 0.00042028		 0.00024664	
O		3.88349098		0.00000000		4.33580791		-0.00024022		-0.00000000		-0.00047983	
O		-1.94174461		3.05745556		4.33580791		-0.00017072		 0.00019043		-0.00025616	
O		0.99140523		1.56105813		4.33580791		-0.00017072		-0.00019043		-0.00025616	
O		0.00000000		0.00000000		2.21917189		 0.00063880		-0.00000000		 0.00000548	
