# total energy = -20638.6845825 eV

CRYSTAL
PRIMVEC
		4.83389572		0.00009967		0.00000000
		0.00021832		10.46616353		0.00000000
		0.00000000		0.00000000		6.10541551
PRIMECORD
   28 1
Si		2.05391352		0.97743107		1.52635388		 0.00002978		-0.00007484		 0.00000056
Si		2.78019672		9.48883545		4.57906163		-0.00002938		 0.00007483		-0.00000063
Si		4.47094111		4.25573565		4.57906116		 0.00002965		 0.00007964		-0.00000063
Si		0.36316913		6.21053039		1.52635388		-0.00002968		-0.00007962		 0.00000059
Mg		0.00000000		0.00000000		0.00000000		-0.00000009		-0.00000003		-0.00000008
Mg		2.41705512		5.23313302		0.00000000		-0.00000004		-0.00000009		-0.00000009
Mg		0.00000000		0.00000000		3.05270776		-0.00000007		 0.00000006		 0.00000003
Mg		2.41705512		5.23313349		3.05270776		-0.00000013		 0.00000001		 0.00000001
Mg		4.80012413		2.90678392		1.52635388		 0.00018669		-0.00009115		 0.00011490
Mg		0.03398610		7.55948259		4.57906116		-0.00018660		 0.00009095		-0.00011505
Mg		2.38310793		2.32727646		4.57906116		 0.00017330		 0.00000920		-0.00013651
Mg		2.45100231		8.13899005		1.52635388		-0.00017348		-0.00000924		 0.00013643
O		3.69103808		0.95651497		1.52635388		-0.00016548		 0.00004102		 0.00001130
O		1.14307215		9.50975107		4.57906116		 0.00016512		-0.00004106		-0.00001138
O		1.27416379		4.27672673		4.57906116		-0.00016399		-0.00004113		-0.00001115
O		3.55994598		6.18953931		1.52635388		 0.00016444		 0.00004098		 0.00001109
O		1.07532918		4.69173641		1.52635388		-0.00008303		-0.00014311		 0.00001093
O		3.75878106		5.77453010		4.57906116		 0.00008302		 0.00014318		-0.00001104
O		3.49211615		0.54148583		4.57906163		-0.00008790		 0.00014046		-0.00001134
O		1.34199362		9.92478068		1.52635388		 0.00008784		-0.00013989		 0.00001131
O		1.34423705		1.69544246		0.21041580		 0.00016889		 0.00012574		-0.00000719
O		3.48987319		8.77082405		5.89499971		-0.00016887		-0.00012591		 0.00000707
O		3.76122430		3.53781490		5.89497408		 0.00016942		-0.00011459		 0.00001184
O		1.07288546		6.92845113		0.21044143		-0.00016956		 0.00011445		-0.00001203
O		3.48987319		8.77082405		3.26312308		-0.00016878		-0.00012556		-0.00001747
O		1.34423705		1.69544246		2.84229196		 0.00016879		 0.00012545		 0.00001752
O		1.07288546		6.92845113		2.84226633		-0.00016949		 0.00011367		 0.00002241
O		3.76122430		3.53781538		3.26314871		 0.00016958		-0.00011341		-0.00002140
