# total energy = -20638.8590488 eV

CRYSTAL
PRIMVEC
		4.80609365		0.00005695		0.00000000
		0.00012340		10.35526375		0.00000000
		0.00000000		0.00000000		6.05729582
PRIMECORD
   28 1
Si		2.04395736		0.96952091		1.51432419		 0.00005032		-0.00000865		 0.00000059
Si		2.76226206		9.38580074		4.54297163		-0.00005072		 0.00000484		-0.00000063
Si		4.44704785		4.20813137		4.54297163		 0.00005202		 0.00001167		-0.00000065
Si		0.35917157		6.14719028		1.51432372		-0.00005196		-0.00000753		 0.00000061
Mg		0.00000000		0.00000000		0.00000000		 0.00000098		-0.00000314		 0.00000129
Mg		2.40310947		5.17766035		0.00000000		-0.00000007		 0.00000409		-0.00000020
Mg		0.00000000		0.00000000		3.02864838		 0.00000099		-0.00000310		-0.00000136
Mg		2.40310947		5.17766082		3.02864791		 0.00000010		 0.00000417		 0.00000013
Mg		4.76867192		2.86879172		1.51432372		 0.00014467		 0.00011070		 0.00009173
Mg		0.03754750		7.48652993		4.54297163		-0.00014379		-0.00011186		-0.00009160
Mg		2.36557858		2.30941917		4.54297210		 0.00014352		-0.00015473		-0.00014378
Mg		2.44064037		8.04590201		1.51432372		-0.00014546		 0.00015299		 0.00014360
O		3.67627470		0.94882218		1.51432419		-0.00026354		-0.00007532		 0.00000835
O		1.12994424		9.40649947		4.54297163		 0.00026355		 0.00007649		-0.00000844
O		1.27326300		4.22892645		4.54297210		-0.00026453		 0.00007309		-0.00000818
O		3.53295642		6.12639473		1.51432372		 0.00026411		-0.00007443		 0.00000818
O		1.06859555		4.63181200		1.51432372		-0.00001905		-0.00003257		 0.00000761
O		3.73762387		5.72350965		4.54297210		 0.00001926		 0.00003230		-0.00000783
O		3.47153559		0.54594754		4.54297210		-0.00002273		 0.00002720		-0.00000840
O		1.33468335		9.80937458		1.51432372		 0.00002276		-0.00002993		 0.00000819
O		1.33250399		1.68454802		0.20246198		-0.00003288		-0.00010776		-0.00001012
O		3.47371496		8.67077363		5.85483384		 0.00003222		 0.00010989		 0.00000864
O		3.73557834		3.49316311		5.85482530		-0.00003124		 0.00011219		 0.00000720
O		1.07064108		6.86215806		0.20247052		 0.00003161		-0.00011244		-0.00000861
O		3.47371496		8.67077411		3.23110941		 0.00003182		 0.00011103		-0.00000990
O		1.33250399		1.68454754		2.82618641		-0.00003242		-0.00010919		 0.00001198
O		1.07064060		6.86215806		2.82617739		 0.00003188		-0.00011255		 0.00001201
O		3.73557882		3.49316311		3.23111843		-0.00003143		 0.00011254		-0.00001039
