# total energy = -20638.864296 eV

CRYSTAL
PRIMVEC
		4.76206027		0.00004271		0.00000000
		0.00009017		10.16510577		0.00000000
		0.00000000		0.00000000		5.96980331
PRIMECORD
   28 1
Si		2.02896285		0.95567066		1.49245083		-0.00060077		-0.00003841		-0.00000005
Si		2.73318901		9.20947878		4.47735201		 0.00060107		 0.00004107		-0.00000007
Si		4.41002810		4.12690406		4.47735201		-0.00060829		 0.00005476		-0.00000005
Si		0.35212376		6.03824490		1.49245083		 0.00060811		-0.00005749		-0.00000024
Mg		0.00000000		0.00000000		0.00000000		-0.00000044		 0.00000247		-0.00000002
Mg		2.38107569		5.08257424		0.00000000		 0.00000015		-0.00000271		 0.00000043
Mg		0.00000000		0.00000000		2.98490166		-0.00000026		 0.00000244		-0.00000004
Mg		2.38107569		5.08257424		2.98490166		-0.00000002		-0.00000268		-0.00000055
Mg		4.72262860		2.80673113		1.49245035		-0.00026130		 0.00006815		-0.00000026
Mg		0.03952374		7.35841878		4.47735201		 0.00026116		-0.00006805		 0.00000002
Mg		2.34154247		2.27611269		4.47735201		-0.00025904		-0.00013940		-0.00000007
Mg		2.42060845		7.88903627		1.49245035		 0.00025984		 0.00014061		-0.00000009
O		3.65224476		0.93352202		1.49245035		-0.00070326		-0.00030594		 0.00000001
O		1.10990758		9.23162789		4.47735201		 0.00070344		 0.00030441		 0.00000001
O		1.27123978		4.14914002		4.47735201		-0.00070551		 0.00029165		-0.00000019
O		3.49091209		6.01600799		1.49245035		 0.00070575		-0.00028957		 0.00000011
O		1.06017425		4.53004162		1.49245083		-0.00015622		 0.00016595		 0.00000006
O		3.70197761		5.63510781		4.47735201		 0.00015670		-0.00016620		-0.00000016
O		3.44111611		0.55261520		4.47735201		-0.00015611		-0.00018776		-0.00000003
O		1.32103576		9.61253424		1.49245083		 0.00015591		 0.00018789		-0.00000006
O		1.31351809		1.66449237		0.18750306		-0.00015330		-0.00020592		 0.00051905
O		3.44863425		8.50065707		5.78229978		 0.00015317		 0.00020461		-0.00051868
O		3.69456436		3.41815306		5.78230547		-0.00014798		 0.00019120		-0.00051856
O		1.06758750		6.74699590		0.18749737		 0.00014770		-0.00019103		 0.00051973
O		3.44863377		8.50065659		3.17240424		 0.00015307		 0.00020476		 0.00051863
O		1.31351809		1.66449285		2.79739812		-0.00015346		-0.00020562		-0.00051855
O		1.06758750		6.74699590		2.79740381		 0.00014768		-0.00019112		-0.00051967
O		3.69456436		3.41815354		3.17239902		-0.00014774		 0.00019194		 0.00051928
