# total energy = -14249.6693835 eV	

CRYSTAL	
PRIMVEC	
		7.63475081		0.00000000		0.00000000	
		0.00000000		7.63475081		0.00000000	
		0.00000000		0.00000000		4.84681814	
PRIMCOORD
   24 1	
Ca		2.56424348		1.25313347		2.45482147		-0.00031611		 0.00031619		-0.00068255	
Ca		5.07051119		6.38162121		2.45482147		 0.00031614		-0.00031618		-0.00068256	
Ca		1.25313347		5.07051042		2.39200053		 0.00031626		 0.00031626		 0.00068299	
Ca		6.38162044		2.56424426		2.39199976		-0.00031626		-0.00031626		 0.00068304	
Si		1.09451233		2.72286463		4.50828511		-0.00010046		 0.00010048		-0.00037708	
Si		6.54024235		4.91188928		4.50828511		 0.00010051		-0.00010058		-0.00037715	
Si		2.72286463		6.54024158		0.33853766		 0.00010180		 0.00010181		 0.00037256	
Si		4.91188928		1.09451310		0.33853844		-0.00010183		-0.00010159		 0.00037154	
Mg		0.00000000		0.00000000		0.00000000		-0.00000007		 0.00000003		-0.00000001	
Mg		3.81737695		3.81737695		0.00000000		 0.00000004		-0.00000006		-0.00000001	
O		3.81737695		0.00000000		0.91082975		-0.00000027		-0.00000024		 0.00037606	
O		0.00000000		3.81737695		3.93599148		-0.00000008		 0.00000010		-0.00037571	
O		1.08752209		2.72985487		1.25910567		-0.00003616		 0.00003610		-0.00031593	
O		6.54723182		4.90489981		1.25910567		 0.00003621		-0.00003609		-0.00031586	
O		2.72985487		6.54723182		3.58771556		 0.00003594		 0.00003599		 0.00031858	
O		4.90489904		1.08752286		3.58771556		-0.00003603		-0.00003604		 0.00031917	
O		0.62222325		1.38168800		3.73351032		 0.00024606		 0.00006868		 0.00004498	
O		7.01253066		6.25306590		3.73351032		-0.00024600		-0.00006868		 0.00004503	
O		1.38168878		7.01253066		1.11331169		 0.00006728		-0.00024555		-0.00004430	
O		6.25306513		0.62222402		1.11331169		-0.00006689		 0.00024544		-0.00004416	
O		3.19515370		5.19906573		1.11331169		-0.00024561		 0.00006728		-0.00004429	
O		4.43960020		2.43568817		1.11331169		 0.00024551		-0.00006709		-0.00004425	
O		2.43568895		3.19515293		3.73351032		-0.00006874		-0.00024606		 0.00004495	
O		5.19906496		4.43960097		3.73351032		 0.00006876		 0.00024605		 0.00004494	
