# total energy = -14250.3864081 eV	

CRYSTAL	
PRIMVEC	
		7.93966066		0.00000000		0.00000000	
		0.00000000		7.93966066		0.00000000	
		0.00000000		0.00000000		5.07629092	
PRIMCOORD
   24 1	
Ca		2.60112254		1.36870624		2.53626398		 0.00001951		-0.00001961		 0.00000842	
Ca		5.33853657		6.57095287		2.53626398		-0.00001952		 0.00001961		 0.00000841	
Ca		1.36870702		5.33853580		2.54002694		-0.00001957		-0.00001948		-0.00000781	
Ca		6.57095287		2.60112331		2.54002694		 0.00001956		 0.00001947		-0.00000786	
Si		1.11578606		2.85404427		4.71822032		 0.00017067		-0.00017136		 0.00020419	
Si		6.82387383		5.08561484		4.71822032		-0.00017074		 0.00017131		 0.00020419	
Si		2.85404427		6.82387305		0.35807292		-0.00017016		-0.00016956		-0.00021057	
Si		5.08561561		1.11578606		0.35807215		 0.00017023		 0.00016960		-0.00020988	
Mg		0.00000000		0.00000000		0.00000000		 0.00000001		-0.00000002		-0.00000011	
Mg		3.96982956		3.96982956		0.00000000		 0.00000001		 0.00000002		-0.00000017	
O		3.96982956		0.00000000		0.95056427		 0.00000007		 0.00000007		-0.00077995	
O		0.00000000		3.96982956		4.12572742		-0.00000000		-0.00000001		 0.00078005	
O		1.13973514		2.83009364		1.25620228		-0.00001825		 0.00001835		-0.00004741	
O		6.79992397		5.10956470		1.25620228		 0.00001827		-0.00001834		-0.00004739	
O		2.83009441		6.79992319		3.82008709		 0.00001827		 0.00001823		 0.00005143	
O		5.10956547		1.13973514		3.82008786		-0.00001827		-0.00001822		 0.00005101	
O		0.65136767		1.47185227		3.96759790		-0.00013352		-0.00006858		-0.00011342	
O		7.28829222		6.46780684		3.96759790		 0.00013354		 0.00006863		-0.00011344	
O		1.47185382		7.28829067		1.10869301		-0.00007039		 0.00013403		 0.00011430	
O		6.46780607		0.65136844		1.10869301		 0.00007019		-0.00013397		 0.00011422	
O		3.31846189		5.44168260		1.10869224		 0.00013417		-0.00007082		 0.00011449	
O		4.62119799		2.49797651		1.10869224		-0.00013412		 0.00007066		 0.00011440	
O		2.49797729		3.31846189		3.96759790		 0.00006909		 0.00013375		-0.00011356	
O		5.44168260		4.62119722		3.96759790		-0.00006903		-0.00013375		-0.00011353	
