# total energy = -18533.9334967 eV

CRYSTAL
PRIMVEC
		4.68600010		0.00000000		-0.18743982
		-2.34299771		4.05819302		0.09371991
		-0.53163912		0.00000000		13.29100152
PRIMECORD
   30 1
O		1.29703682		0.13229683		3.15408714		-0.00007361		 0.00007074		-0.00040978
O		0.51432317		3.92589807		10.04319260		 0.00007361		-0.00007074		 0.00040978
O		3.73024181		1.16835391		3.05675800		-0.00025502		 0.00039241		 0.00009425
O		-1.91888182		2.88984099		10.14052174		 0.00025502		-0.00039241		-0.00009425
O		1.61638797		2.75754275		3.14131180		 0.00055979		-0.00091723		 0.00046427
O		0.19497202		1.30065121		10.05596700		-0.00055979		 0.00091723		-0.00046427
O		3.46282305		1.48502909		7.49069967		-0.00007356		 0.00007083		-0.00041032
O		0.86874988		1.22043402		1.18252679		 0.00007359		-0.00007094		 0.00041075
O		1.21002888		2.52108617		7.58081175		-0.00025535		 0.00039238		 0.00009359
O		3.12154405		0.18437694		1.09241518		 0.00025545		-0.00039254		-0.00009318
O		1.43917509		0.05208011		7.57164564		 0.00055998		-0.00091743		 0.00046368
O		2.89239878		2.65338300		1.10158082		-0.00055991		 0.00091757		-0.00046329
O		0.94261011		2.83775994		12.01475295		-0.00007359		 0.00007094		-0.00041075
O		-1.65146306		2.57316581		5.70658007		 0.00007356		-0.00007083		 0.00041032
O		-1.31018406		3.87381795		12.10486456		-0.00025545		 0.00039254		 0.00009318
O		0.60133111		1.53710920		5.61646799		 0.00025535		-0.00039238		-0.00009359
O		-1.08103879		1.40481190		12.09569892		 0.00055991		-0.00091757		 0.00046329
O		0.37218584		4.00611479		5.62563410		-0.00055998		 0.00091743		-0.00046368
Mg		-0.19064620		0.00000000		4.76615304		-0.00002175		-0.00008432		 0.00072423
Mg		-0.34099386		0.00000000		8.52484661		 0.00002175		 0.00008432		-0.00072423
Mg		1.97514097		1.35273179		9.10276603		-0.00002156		-0.00008432		 0.00072454
Mg		1.82479283		1.35273179		12.86146054		 0.00002166		 0.00008431		-0.00072404
Mg		-0.01343284		2.70546311		0.33581920		-0.00002166		-0.00008431		 0.00072404
Mg		-0.16378098		2.70546311		4.09451371		 0.00002156		 0.00008432		-0.00072454
Si		-0.08346718		0.00000000		2.08668708		 0.00068357		-0.00062878		-0.00024391
Si		-0.44817288		0.00000000		11.20431257		-0.00068357		 0.00062878		 0.00024391
Si		2.08231904		1.35273179		6.42330101		 0.00068380		-0.00062883		-0.00024218
Si		2.24925388		1.35273179		2.24992592		-0.00068394		 0.00062883		 0.00024038
Si		-0.43789389		2.70546311		10.94735382		 0.00068394		-0.00062883		-0.00024038
Si		-0.27095906		2.70546311		6.77397967		-0.00068380		 0.00062883		 0.00024218
