# total energy = -18526.3668326 eV

CRYSTAL
PRIMVEC
		4.68600185		0.00000000		0.74976238
		-2.34299855		4.05819669		-0.37487882
		2.12656114		0.00000000		13.29100239
PRIMECORD
   30 1
O		1.93925793		0.13229694		3.43918323		-0.00025829		 0.00047501		 0.00008097
O		2.53030224		3.92589785		10.22669703		 0.00025829		-0.00047501		-0.00008097
O		4.37246420		1.16835389		3.82849627		 0.00005922		-0.00042472		 0.00034903
O		0.09709596		2.88984090		9.83738399		-0.00005922		 0.00042472		-0.00034903
O		2.25860894		2.75754301		3.49027912		 0.00015917		 0.00011357		 0.00037190
O		2.21095123		1.30065083		10.17560114		-0.00015917		-0.00011357		-0.00037190
O		4.99111130		1.48502885		8.24439602		-0.00025723		 0.00047511		 0.00007790
O		1.11259497		1.22043402		1.36603099		 0.00025642		-0.00047515		-0.00007527
O		2.73831715		2.52108628		7.88394905		 0.00005869		-0.00042579		 0.00034538
O		3.36539007		0.18437707		1.72647796		-0.00005807		 0.00042666		-0.00034204
O		2.96746186		0.05208013		7.92061309		 0.00016127		 0.00011289		 0.00036796
O		3.13624394		2.65338322		1.68981486		-0.00016373		-0.00011233		-0.00036414
O		3.35696520		2.83776029		12.29985022		-0.00025642		 0.00047515		 0.00007527
O		-0.52155114		2.57316594		5.42148424		 0.00025723		-0.00047511		-0.00007790
O		1.10417010		3.87381819		11.93940230		 0.00005807		-0.00042666		 0.00034204
O		1.73124302		1.53710899		5.78193121		-0.00005869		 0.00042579		-0.00034538
O		1.33331623		1.40481205		11.97606635		 0.00016373		 0.00011233		 0.00036414
O		1.50209783		4.00611513		5.74526811		-0.00016127		-0.00011289		-0.00036796
Mg		0.76258405		0.00000000		4.76615317		 0.00028695		-0.00013265		-0.00002106
Mg		1.36397614		0.00000000		8.52484733		-0.00028695		 0.00013265		 0.00002106
Mg		3.81443790		1.35273191		9.57136643		 0.00028663		-0.00013225		-0.00002052
Mg		4.41582904		1.35273191		13.33006106		-0.00028673		 0.00013275		 0.00002097
Mg		0.05373113		2.70546288		0.33581919		 0.00028673		-0.00013275		-0.00002097
Mg		0.65512179		2.70546288		4.09451430		-0.00028663		 0.00013225		 0.00002052
Si		0.33387018		0.00000000		2.08668717		-0.00007432		-0.00012121		 0.00003899
Si		1.79269002		0.00000000		11.20431332		 0.00007432		 0.00012121		-0.00003899
Si		3.38572307		1.35273191		6.89190139		-0.00007561		-0.00012044		 0.00004422
Si		2.71798320		1.35273191		2.71852609		 0.00007676		 0.00012006		-0.00004939
Si		1.75157697		2.70546288		10.94735416		-0.00007676		-0.00012006		 0.00004939
Si		1.08383709		2.70546288		6.77398030		 0.00007561		 0.00012044		-0.00004422
