# total energy = -18529.00598 eV

CRYSTAL
PRIMVEC
		4.68600089		0.00000000		-0.56231897
		-2.34299808		4.05819720		0.28116185
		-1.59491964		0.00000000		13.29099854
PRIMECORD
   30 1
O		1.04014781		0.13229705		3.04004801		 0.00037582		 0.00019609		-0.00023646
O		-0.29206889		3.92589827		9.96979246		-0.00037582		-0.00019609		 0.00023646
O		3.47335432		1.16835389		2.74806314		-0.00008502		 0.00078989		 0.00011382
O		-2.72527399		2.88984096		10.26177734		 0.00008502		-0.00078989		-0.00011382
O		1.35949986		2.75754296		3.00172613		 0.00007614		-0.00016663		 0.00059816
O		-0.61142000		1.30065094		10.00811435		-0.00007614		 0.00016663		-0.00059816
O		2.85150821		1.48502898		7.18922200		 0.00037581		 0.00019611		-0.00023663
O		0.77121119		1.22043394		1.10912503		-0.00037578		-0.00019613		 0.00023676
O		0.59871384		2.52108629		7.45955705		-0.00008515		 0.00078986		 0.00011369
O		3.02400603		0.18437710		0.83878999		 0.00008522		-0.00078988		-0.00011343
O		0.82785888		0.05208005		7.43206008		 0.00007616		-0.00016666		 0.00059806
O		2.79486005		2.65338287		0.86628791		-0.00007613		 0.00016672		-0.00059792
O		-0.02313180		2.83775996		11.90071544		 0.00037578		 0.00019613		-0.00023676
O		-2.10342788		2.57316587		5.82061894		-0.00037581		-0.00019611		 0.00023663
O		-2.27592617		3.87381822		12.17105048		-0.00008522		 0.00078988		 0.00011343
O		0.14936602		1.53710903		5.55028296		 0.00008515		-0.00078986		-0.00011369
O		-2.04678113		1.40481198		12.14355351		 0.00007613		-0.00016672		 0.00059792
O		-0.07977902		4.00611527		5.57778134		-0.00007616		 0.00016666		-0.00059806
Mg		-0.57193803		0.00000000		4.76615323		-0.00025034		-0.00053859		-0.00021923
Mg		-1.02298208		0.00000000		8.52484720		 0.00025034		 0.00053859		 0.00021923
Mg		1.23942191		1.35273193		8.91532628		-0.00025029		-0.00053862		-0.00021916
Mg		0.78837786		1.35273193		12.67402119		 0.00025033		 0.00053860		 0.00021926
Mg		-0.04029799		2.70546291		0.33581881		-0.00025033		-0.00053860		-0.00021926
Mg		-0.49134204		2.70546291		4.09451420		 0.00025029		 0.00053862		 0.00021916
Si		-0.25040220		0.00000000		2.08668692		 0.00011778		-0.00040328		 0.00020191
Si		-1.34451790		0.00000000		11.20431351		-0.00011778		 0.00040328		-0.00020191
Si		1.56095820		1.35273193		6.23586138		 0.00011791		-0.00040331		 0.00020222
Si		2.06176214		1.35273193		2.06248613		-0.00011801		 0.00040333		-0.00020255
Si		-1.31368322		2.70546291		10.94735434		 0.00011801		-0.00040333		 0.00020255
Si		-0.81287787		2.70546291		6.77398004		-0.00011791		 0.00040331		-0.00020222
