# total energy = -18521.5395122 eV	

CRYSTAL	
PRIMVEC	
		7.02599999		0.00000000		0.00000000	
		0.00000000		6.85079965		0.00000000	
		-0.43440353		0.00000000		4.23980456	
PRIMCOORD
   30 1	
Mg		0.16677405		1.71269991		2.28101478		-0.00006398		0.00000000		 0.00034155	
Mg		6.42482381		5.13809974		1.95878978		 0.00006398		0.00000000		-0.00034155	
Mg		4.73063390		1.71269991		3.88790033		-0.00050283		-0.00000000		-0.00078390	
Mg		1.86096467		5.13809974		0.35190424		 0.00050283		-0.00000000		 0.00078390	
Mg		2.80620688		1.71269991		0.17807186		 0.00020130		0.00000000		-0.00013151	
Mg		3.78539099		5.13809974		4.06173200		-0.00020130		0.00000000		 0.00013151	
Si		0.00000000		0.00000000		0.00000000		0.00000000		0.00000000		0.00000000	
Si		0.00000000		3.42539983		0.00000000		0.00000000		-0.00000000		0.00000000	
Si		2.07748702		3.43910193		2.35309100		 0.00009633		-0.00019364		 0.00020384	
Si		4.51411084		3.41169913		1.88671285		-0.00009633		 0.00019364		-0.00020384	
Si		4.51411084		0.01370070		1.88671285		-0.00009633		-0.00019364		-0.00020384	
Si		2.07748702		6.83709895		2.35309100		 0.00009633		 0.00019364		 0.00020384	
O		5.50377634		3.83644823		0.59357334		 0.00005866		 0.00026770		-0.00046597	
O		1.08782223		3.01435213		3.64623192		-0.00005866		-0.00026770		 0.00046597	
O		1.08782223		0.41104770		3.64623192		-0.00005866		 0.00026770		 0.00046597	
O		5.50377634		6.43975195		0.59357334		 0.00005866		-0.00026770		-0.00046597	
O		5.86321666		3.02120318		2.77707216		 0.00062931		-0.00022903		-0.00013509	
O		0.72838120		3.82959717		1.46273310		-0.00062931		 0.00022903		 0.00013509	
O		0.72838120		6.44660301		1.46273310		-0.00062931		-0.00022903		 0.00013509	
O		5.86321666		0.40419735		2.77707216		 0.00062931		 0.00022903		-0.00013509	
O		1.96359767		1.71269991		1.81887612		-0.00008820		0.00000000		 0.00062584	
O		4.62800090		5.13809974		2.42092774		 0.00008820		0.00000000		-0.00062584	
O		3.11234796		3.80219367		1.03027226		 0.00005943		-0.00007398		 0.00035112	
O		3.47924990		3.04860599		3.20953230		-0.00005943		 0.00007398		-0.00035112	
O		3.47924990		0.37679384		3.20953230		-0.00005943		-0.00007398		-0.00035112	
O		3.11234796		6.47400581		1.03027226		 0.00005943		 0.00007398		 0.00035112	
O		4.38877614		1.71269991		1.32705893		 0.00005616		0.00000000		 0.00084639	
O		2.20282173		5.13809974		2.91274633		-0.00005616		0.00000000		-0.00084639	
O		6.82103681		1.71269991		0.49181719		 0.00008238		0.00000000		-0.00045676	
O		-0.22943895		5.13809974		3.74798667		-0.00008238		0.00000000		 0.00045676	
