# total energy = -18490.9764455 eV	

CRYSTAL	
PRIMVEC	
		7.02599999		0.00000000		0.00000000	
		0.00000000		5.60520227		0.00000000	
		-0.43440353		0.00000000		4.23980456	
PRIMCOORD
   30 1	
Mg		0.16677405		1.40129986		2.28101478		-0.00035439		0.00000000		-0.00040510	
Mg		6.42482381		4.20390030		1.95878978		 0.00035439		0.00000000		 0.00040510	
Mg		4.73063390		1.40129986		3.88790033		 0.00000501		0.00000000		 0.00057924	
Mg		1.86096467		4.20390030		0.35190424		-0.00000501		0.00000000		-0.00057924	
Mg		2.80620688		1.40129986		0.17807186		-0.00026079		0.00000000		 0.00052175	
Mg		3.78539099		4.20390030		4.06173200		 0.00026079		0.00000000		-0.00052175	
Si		0.00000000		0.00000000		0.00000000		0.00000000		0.00000000		0.00000000	
Si		0.00000000		2.80259973		0.00000000		0.00000000		0.00000000		0.00000000	
Si		2.07748702		2.81380971		2.35309100		-0.00014178		 0.00018694		 0.00007365	
Si		4.51411084		2.79138975		1.88671285		 0.00014178		-0.00018694		-0.00007365	
Si		4.51411084		0.01120998		1.88671285		 0.00014178		 0.00018694		-0.00007365	
Si		2.07748702		5.59399018		2.35309100		-0.00014178		-0.00018694		 0.00007365	
O		5.50377634		3.13891187		0.59357334		 0.00008063		 0.00011528		 0.00044189	
O		1.08782223		2.46628830		3.64623192		-0.00008063		-0.00011528		-0.00044189	
O		1.08782223		0.33631214		3.64623192		-0.00008063		 0.00011528		-0.00044189	
O		5.50377634		5.26888803		0.59357334		 0.00008063		-0.00011528		 0.00044189	
O		5.86321666		2.47189294		2.77707216		-0.00046131		-0.00001798		 0.00018981	
O		0.72838120		3.13330723		1.46273310		 0.00046131		 0.00001798		-0.00018981	
O		0.72838120		5.27449267		1.46273310		 0.00046131		-0.00001798		-0.00018981	
O		5.86321666		0.33070679		2.77707216		-0.00046131		 0.00001798		 0.00018981	
O		1.96359767		1.40129986		1.81887612		 0.00006102		0.00000000		 0.00011096	
O		4.62800090		4.20390030		2.42092774		-0.00006102		0.00000000		-0.00011096	
O		3.11234796		3.11088585		1.03027226		-0.00021085		 0.00032175		-0.00024728	
O		3.47924990		2.49431431		3.20953230		 0.00021085		-0.00032175		 0.00024728	
O		3.47924990		0.30828612		3.20953230		 0.00021085		 0.00032175		 0.00024728	
O		3.11234796		5.29691404		1.03027226		-0.00021085		-0.00032175		-0.00024728	
O		4.38877614		1.40129986		1.32705893		-0.00013891		0.00000000		 0.00013114	
O		2.20282173		4.20390030		2.91274633		 0.00013891		0.00000000		-0.00013114	
O		6.82103681		1.40129986		0.49181719		 0.00053419		-0.00000000		 0.00004122	
O		-0.22943895		4.20390030		3.74798667		-0.00053419		-0.00000000		-0.00004122	
