# total energy = -24715.7953984 eV	

CRYSTAL	
PRIMVEC	
		9.20270052		-0.00000968		-0.56542849	
		-0.00000968		8.63312856		0.00000968	
		1.24962348		0.00000000		4.75150257	
PRIMCOORD
   40 1	
Si		2.10429217		3.52552977		0.88327217		-0.00000543		-0.00003837		 0.00014702	
Si		8.34801634		5.10759782		3.30280675		 0.00000532		 0.00003826		-0.00014692	
Si		3.12185918		7.84210180		1.20977261		-0.00001625		-0.00005749		-0.00014607	
Si		7.33045030		0.79102580		2.97630631		 0.00001631		 0.00005744		 0.00014602	
Si		7.72290449		3.52634104		0.92662079		-0.00002140		-0.00027088		-0.00008663	
Si		2.72940499		5.10678559		3.25945717		 0.00002153		 0.00027074		 0.00008649	
Si		6.70592705		7.84289758		0.60101003		 0.00008088		-0.00022826		 0.00004627	
Si		3.74638243		0.79023002		3.58506889		-0.00008102		 0.00022810		-0.00004614	
O		3.65519321		3.53265692		0.44365990		-0.00000004		 0.00010470		-0.00023272	
O		6.79711530		5.10046970		3.74241902		 0.00000013		-0.00010473		 0.00023269	
O		1.57094846		7.84922895		1.64938779		 0.00001805		 0.00010386		 0.00022854	
O		8.88136005		0.78389865		2.53669113		-0.00001810		-0.00010386		-0.00022850	
O		8.23734799		2.26328420		0.12254791		-0.00003382		-0.00002672		-0.00021901	
O		2.21496149		6.36984339		4.06353005		 0.00003374		 0.00002683		 0.00021910	
O		6.19151260		6.57985817		1.40505968		 0.00001092		-0.00006548		 0.00024591	
O		4.26079688		2.05326846		2.78101924		-0.00001087		 0.00006554		-0.00024594	
O		2.44595209		3.77585333		4.24510301		-0.00020697		-0.00001645		-0.00001894	
O		8.00635642		4.85727330		-0.05902409		 0.00020692		 0.00001655		 0.00001889	
O		4.02981209		8.09241470		2.59944241		 0.00021459		-0.00001363		 0.00001968	
O		6.42249738		0.54071289		1.58663555		-0.00021460		 0.00001365		-0.00001965	
O		8.63019716		3.77666847		2.31667008		 0.00044723		-0.00015693		 0.00004968	
O		1.82211232		4.85645816		1.86940788		-0.00044726		 0.00015697		-0.00004965	
O		7.04827142		8.09323759		3.96244298		-0.00045359		-0.00016557		-0.00004133	
O		3.40403709		0.53989001		0.22363497		 0.00045364		 0.00016556		 0.00004130	
O		1.58842169		2.26319127		1.68728116		 0.00023444		-0.00020042		 0.00010957	
O		8.86388779		6.36993633		2.49879776		-0.00023434		 0.00020060		-0.00010970	
O		3.63772288		6.57974780		0.40576169		-0.00023195		-0.00018981		-0.00010369	
O		6.81458563		2.05337979		3.78031723		 0.00023196		 0.00018994		 0.00010377	
O		6.17199667		3.53345464		1.36632116		-0.00008351		-0.00009711		 0.00015414	
O		4.28031184		5.09967296		2.81975776		 0.00008333		 0.00009706		-0.00015411	
O		8.25686004		7.85002086		0.16129127		 0.00004314		-0.00010023		-0.00014056	
O		2.19544847		0.78310577		4.02478669		-0.00004300		 0.00010024		 0.00014051	
Mg		0.31186083		0.80602070		1.18738336		 0.00008876		-0.00023679		 0.00013382	
Mg		0.93775200		7.82711368		3.56412308		-0.00008879		 0.00023673		-0.00013382	
Mg		4.91429149		5.12258401		0.90565755		-0.00009004		-0.00023660		-0.00013490	
Mg		5.53801702		3.51054358		3.28042137		 0.00009010		 0.00023661		 0.00013493	
Mg		0.31324909		6.26760042		1.18876000		-0.00011319		-0.00018046		-0.00036223	
Mg		0.93636375		2.36553396		3.56274644		 0.00011318		 0.00018046		 0.00036232	
Mg		4.91290130		1.95103129		0.90428382		 0.00011463		-0.00018150		 0.00036047	
Mg		5.53940818		6.68209630		3.28179414		-0.00011462		 0.00018150		-0.00036064	
