# total energy = -24716.5498446 eV	

CRYSTAL	
PRIMVEC	
		9.37466412		0.00002904		-0.50985955	
		0.00002904		8.81372762		-0.00003872	
		1.30674138		-0.00001936		4.81454524	
PRIMCOORD
   40 1	
Si		2.16537735		3.60847561		0.92378619		 0.00002963		-0.00047072		 0.00010738	
Si		8.51605623		5.20526653		3.38086078		-0.00003025		 0.00047010		-0.00010689	
Si		3.17550450		8.01520970		1.22839498		-0.00055931		-0.00001331		 0.00025679	
Si		7.50592811		0.79853148		3.07625296		 0.00055976		 0.00001294		-0.00025714	
Si		7.86100589		3.60700604		0.97377791		 0.00022388		-0.00016156		-0.00005004	
Si		2.82042672		5.20673611		3.33087003		-0.00022340		 0.00016109		 0.00004963	
Si		6.85431161		8.01382628		0.66870927		 0.00011430		-0.00000194		-0.00012639	
Si		3.82712100		0.79991586		3.63593867		-0.00011477		 0.00000155		 0.00012676	
O		3.72924996		3.60260118		0.48199666		 0.00057970		 0.00017810		 0.00000207	
O		6.95218362		5.21114096		3.82265128		-0.00057931		-0.00017810		-0.00000217	
O		1.61140342		8.00946209		1.67033167		-0.00026090		 0.00014984		-0.00010708	
O		9.07003016		0.80428005		2.63431627		 0.00026052		-0.00014989		 0.00010719	
O		8.40585063		2.33354697		0.18468637		 0.00012156		 0.00020890		 0.00017489	
O		2.27558295		6.48019421		4.11996060		-0.00012182		-0.00020855		-0.00017461	
O		6.30957723		6.74044563		1.45773497		-0.00024269		 0.00002601		-0.00008114	
O		4.37185635		2.07329555		2.84691297		 0.00024287		-0.00002569		 0.00008087	
O		2.56198371		3.88093864		4.34360041		 0.00017566		-0.00012855		 0.00012264	
O		8.11944890		4.93280253		-0.03895247		-0.00017563		 0.00012870		-0.00012272	
O		4.08548268		8.28782956		2.62324799		-0.00012258		-0.00018256		-0.00017465	
O		6.59595089		0.52591258		1.68139995		 0.00012256		 0.00018259		 0.00017469	
O		8.77169369		3.87930352		2.36801229		-0.00002713		-0.00031084		 0.00002712	
O		1.90973892		4.93443765		1.93663565		 0.00002714		 0.00031096		-0.00002705	
O		7.25046491		8.28615668		4.08896107		-0.00003107		-0.00030942		-0.00001619	
O		3.43096867		0.52758546		0.21568687		 0.00003110		 0.00030948		 0.00001615	
O		1.61757118		2.33601756		1.71250307		 0.00013818		 0.00001902		-0.00019827	
O		9.06386143		6.47772362		2.59214487		-0.00013779		-0.00001838		 0.00019794	
O		3.72309575		6.74300916		0.43987463		 0.00008453		-0.00040228		-0.00005230	
O		6.95833783		2.07073202		3.86477234		-0.00008474		 0.00040256		 0.00005252	
O		6.29716619		3.60227977		1.41562843		-0.00041926		 0.00007934		-0.00008477	
O		4.38426642		5.21146140		2.88901951		 0.00041889		-0.00007943		 0.00008488	
O		8.41829072		8.00915907		0.22678614		 0.00020977		 0.00006243		 0.00014307	
O		2.26314189		0.80458210		4.07786180		-0.00020939		-0.00006245		-0.00014318	
Mg		0.32545683		0.84080260		1.20370456		 0.00022123		 0.00009169		 0.00010674	
Mg		0.98130973		7.97291147		3.61080002		-0.00022125		-0.00009179		-0.00010674	
Mg		5.01526238		5.24767318		0.94861021		-0.00021269		 0.00012386		-0.00009966	
Mg		5.66617120		3.56606799		3.35603773		 0.00021273		-0.00012388		 0.00009965	
Mg		0.32768636		6.41201189		1.20303948		-0.00000996		-0.00004961		 0.00023259	
Mg		0.97908116		2.40170217		3.61146510		 0.00000995		 0.00004974		-0.00023255	
Mg		5.01304253		2.00517616		0.94926562		 0.00000442		-0.00010105		-0.00022568	
Mg		5.66839105		6.80856502		3.35538232		-0.00000441		 0.00010112		 0.00022563	
