# total energy = -49447.2560409 eV	

CRYSTAL	
PRIMVEC	
		14.02399962		0.00000000		0.00000000	
		0.00000000		5.36444631		0.00000000	
		0.00000000		0.00000000		8.73299700	
PRIMCOORD
   70 1	
Mg		2.42755433		1.75900363		0.04628481		 0.00067499		-0.00006684		-0.00007091	
Mg		11.59644529		3.60544689		0.04628481		-0.00067499		 0.00006684		-0.00007091	
Mg		9.43955414		0.92322233		4.41278471		 0.00067499		 0.00006684		-0.00007091	
Mg		4.58444548		4.44122818		4.41278471		-0.00067499		-0.00006684		-0.00007091	
Mg		2.48925993		4.48360731		1.53002257		-0.00013494		-0.00044246		-0.00001400	
Mg		11.53473969		0.88084321		1.53002257		 0.00013494		 0.00044246		-0.00001400	
Mg		9.50125974		3.56306777		5.89652106		-0.00013494		 0.00044246		-0.00001400	
Mg		4.52273988		1.80138135		5.89652106		 0.00013494		-0.00044246		-0.00001400	
Mg		4.54377588		1.85663591		2.83123937		 0.00016837		-0.00089319		 0.00029673	
Mg		9.48022374		3.50781321		2.83123937		-0.00016837		 0.00089319		 0.00029673	
Mg		11.55577569		0.82558865		7.19773927		 0.00016837		 0.00089319		 0.00029673	
Mg		2.46822393		4.53886047		7.19773927		-0.00016837		-0.00089319		 0.00029673	
Mg		0.00000000		2.68222456		7.23616363		0.00000000		0.00000000		-0.00028926	
Mg		7.01199981		0.00000000		2.86966373		0.00000000		0.00000000		-0.00028926	
Mg		0.00000000		2.68222456		1.63307091		0.00000000		0.00000000		-0.00033297	
Mg		7.01199981		0.00000000		5.99957082		0.00000000		0.00000000		-0.00033297	
Mg		0.00000000		0.00000000		5.78561226		0.00000000		0.00000000		-0.00080763	
Mg		7.01199981		2.68222456		1.41911236		0.00000000		0.00000000		-0.00080763	
Mg		0.00000000		0.00000000		3.01725090		0.00000000		0.00000000		 0.00081812	
Mg		7.01199981		2.68222456		7.38375080		0.00000000		0.00000000		 0.00081812	
Si		0.00000000		0.00000000		0.06724368		0.00000000		0.00000000		 0.00011442	
Si		7.01199981		2.68222456		4.43374358		0.00000000		0.00000000		 0.00011442	
Si		5.28143826		0.07563844		0.04453742		 0.00014751		-0.00012846		-0.00028902	
Si		8.74256136		5.28881067		0.04453742		-0.00014751		 0.00012846		-0.00028902	
Si		12.29343807		2.60658612		4.41103732		 0.00014751		 0.00012846		-0.00028902	
Si		1.73056155		2.75786440		4.41103732		-0.00014751		-0.00012846		-0.00028902	
O		5.82416704		3.80232141		8.67710855		 0.00005235		-0.00005115		 0.00005391	
O		8.19983258		1.56212771		8.67710855		-0.00005235		 0.00005115		 0.00005391	
O		12.83616825		4.24435227		4.31060865		 0.00005235		 0.00005115		 0.00005391	
O		1.18783277		1.12009685		4.31060865		-0.00005235		-0.00005115		 0.00005391	
O		1.09807917		3.71810028		0.04366513		-0.00056210		-0.00053970		 0.00026056	
O		12.92592045		1.64635024		0.04366513		 0.00056210		 0.00053970		 0.00026056	
O		8.11007898		4.32857480		4.41016503		-0.00056210		 0.00053970		 0.00026056	
O		5.91392064		1.03587432		4.41016503		 0.00056210		-0.00053970		 0.00026056	
O		3.49898791		0.11801757		3.01375752		 0.00015727		 0.00024341		 0.00004091	
O		10.52501171		5.24643155		3.01375752		-0.00015727		-0.00024341		 0.00004091	
O		10.51098912		2.56420699		7.38025742		 0.00015727		-0.00024341		 0.00004091	
O		3.51301190		2.80024353		7.38025742		-0.00015727		 0.00024341		 0.00004091	
O		3.57892470		2.74659892		1.41474529		-0.00043495		-0.00059907		 0.00057087	
O		10.44507492		2.61785159		1.41474529		 0.00043495		 0.00059907		 0.00057087	
O		10.59092451		5.30007755		5.78124519		-0.00043495		 0.00059907		 0.00057087	
O		3.43307511		0.06437437		5.78124519		 0.00043495		-0.00059907		 0.00057087	
O		1.06582397		0.77248117		1.33702148		 0.00005255		 0.00034346		-0.00010685	
O		12.95817705		4.59196935		1.33702148		-0.00005255		-0.00034346		-0.00010685	
O		8.07782378		1.90974339		5.70352138		 0.00005255		-0.00034346		-0.00010685	
O		5.94617584		3.45470572		5.70352138		-0.00005255		 0.00034346		-0.00010685	
O		6.02751504		3.47079826		3.16047240		-0.00031157		 0.00050758		 0.00009651	
O		7.99648318		1.89365085		3.16047240		 0.00031157		-0.00050758		 0.00009651	
O		13.03951625		4.57587541		7.52697230		-0.00031157		-0.00050758		 0.00009651	
O		0.98448477		0.78857371		7.52697230		 0.00031157		 0.00050758		 0.00009651	
O		5.81294784		0.82076159		1.39640751		 0.00026399		-0.00018956		-0.00046087	
O		8.21105178		4.54368893		1.39640751		-0.00026399		 0.00018956		-0.00046087	
O		12.82494765		1.86146437		5.76290741		 0.00026399		 0.00018956		-0.00046087	
O		1.19905197		3.50298615		5.76290741		-0.00026399		-0.00018956		-0.00046087	
O		1.24673357		3.67464832		3.03821117		-0.00013176		-0.00020422		-0.00031729	
O		12.77726605		1.68980220		3.03821117		 0.00013176		 0.00020422		-0.00031729	
O		8.25873338		4.37202676		7.40471107		-0.00013176		 0.00020422		-0.00031729	
O		5.76526624		0.99242236		7.40471107		 0.00013176		-0.00020422		-0.00031729	
O		3.64343510		0.02574947		0.06113061		 0.00033862		-0.00034372		 0.00017166	
O		10.38056592		5.33870105		0.06113061		-0.00033862		 0.00034372		 0.00017166	
O		10.65543491		2.65647649		4.42763051		 0.00033862		 0.00034372		 0.00017166	
O		3.36856471		2.70797543		4.42763051		-0.00033862		-0.00034372		 0.00017166	
H		4.20719989		3.21867059		0.87329970		-0.00066220		-0.00064828		 0.00026516	
H		9.81679973		2.14577993		0.87329970		 0.00066220		 0.00064828		 0.00026516	
H		11.21919970		4.82800448		5.23979960		-0.00066220		 0.00064828		 0.00026516	
H		2.80479992		0.53644463		5.23979960		 0.00066220		-0.00064828		 0.00026516	
H		3.78647990		0.96560146		3.92985005		 0.00076092		-0.00091023		-0.00024871	
H		10.23751972		4.39884906		3.92985005		-0.00076092		 0.00091023		-0.00024871	
H		10.79847971		1.71662450		8.29634995		 0.00076092		 0.00091023		-0.00024871	
H		3.22551991		3.64782602		8.29634995		-0.00076092		-0.00091023		-0.00024871	
