# total energy = -49444.1837714 eV	

CRYSTAL	
PRIMVEC	
		14.02399962		0.00000000		0.00000000	
		0.00000000		4.72582142		0.00000000	
		0.00000000		0.00000000		8.73299700	
PRIMCOORD
   70 1	
Mg		2.42755433		1.54959726		0.04628481		-0.00017130		 0.00002742		 0.00008106	
Mg		11.59644529		3.17622696		0.04628481		 0.00017130		-0.00002742		 0.00008106	
Mg		9.43955414		0.81331485		4.41278471		-0.00017130		-0.00002742		 0.00008106	
Mg		4.58444548		3.91251078		4.41278471		 0.00017130		 0.00002742		 0.00008106	
Mg		2.48925993		3.94984547		1.53002257		-0.00060302		-0.00020059		 0.00027327	
Mg		11.53473969		0.77598156		1.53002257		 0.00060302		 0.00020059		 0.00027327	
Mg		9.50125974		3.13889226		5.89652106		-0.00060302		 0.00020059		 0.00027327	
Mg		4.52273988		1.58693196		5.89652106		 0.00060302		-0.00020059		 0.00027327	
Mg		4.54377588		1.63560786		2.83123937		 0.00023988		-0.00011865		-0.00021334	
Mg		9.48022374		3.09021636		2.83123937		-0.00023988		 0.00011865		-0.00021334	
Mg		11.55577569		0.72730425		7.19773927		 0.00023988		 0.00011865		-0.00021334	
Mg		2.46822393		3.99852137		7.19773927		-0.00023988		-0.00011865		-0.00021334	
Mg		0.00000000		2.36291351		7.23616363		0.00000000		0.00000000		-0.00039204	
Mg		7.01199981		0.00000000		2.86966373		0.00000000		0.00000000		-0.00039204	
Mg		0.00000000		2.36291351		1.63307091		0.00000000		0.00000000		 0.00079183	
Mg		7.01199981		0.00000000		5.99957082		0.00000000		0.00000000		 0.00079183	
Mg		0.00000000		0.00000000		5.78561226		0.00000000		0.00000000		-0.00046169	
Mg		7.01199981		2.36291351		1.41911236		0.00000000		0.00000000		-0.00046169	
Mg		0.00000000		0.00000000		3.01725090		0.00000000		0.00000000		-0.00050884	
Mg		7.01199981		2.36291351		7.38375080		0.00000000		0.00000000		-0.00050884	
Si		0.00000000		0.00000000		0.06724368		0.00000000		0.00000000		-0.00024655	
Si		7.01199981		2.36291351		4.43374358		0.00000000		0.00000000		-0.00024655	
Si		5.28143826		0.06663363		0.04453742		-0.00008320		-0.00018609		-0.00026823	
Si		8.74256136		4.65919059		0.04453742		 0.00008320		 0.00018609		-0.00026823	
Si		12.29343807		2.29627848		4.41103732		-0.00008320		 0.00018609		-0.00026823	
Si		1.73056155		2.42954714		4.41103732		 0.00008320		-0.00018609		-0.00026823	
O		5.82416704		3.34966456		8.67710855		 0.00017749		-0.00008487		-0.00065128	
O		8.19983258		1.37615966		8.67710855		-0.00017749		 0.00008487		-0.00065128	
O		12.83616825		3.73907317		4.31060865		 0.00017749		 0.00008487		-0.00065128	
O		1.18783277		0.98675245		4.31060865		-0.00017749		-0.00008487		-0.00065128	
O		1.09807917		3.27546919		0.04366513		-0.00066903		 0.00047492		-0.00044847	
O		12.92592045		1.45035643		0.04366513		 0.00066903		-0.00047492		-0.00044847	
O		8.11007898		3.81326854		4.41016503		-0.00066903		-0.00047492		-0.00044847	
O		5.91392064		0.91255708		4.41016503		 0.00066903		 0.00047492		-0.00044847	
O		3.49898791		0.10396832		3.01375752		 0.00057996		-0.00038708		 0.00090182	
O		10.52501171		4.62185730		3.01375752		-0.00057996		 0.00038708		 0.00090182	
O		10.51098912		2.25894379		7.38025742		 0.00057996		 0.00038708		 0.00090182	
O		3.51301190		2.46688043		7.38025742		-0.00057996		-0.00038708		 0.00090182	
O		3.57892470		2.41962236		1.41474529		-0.00027033		-0.00036260		 0.00051271	
O		10.44507492		2.30620326		1.41474529		 0.00027033		 0.00036260		 0.00051271	
O		10.59092451		4.66911537		5.78124519		-0.00027033		 0.00036260		 0.00051271	
O		3.43307511		0.05671025		5.78124519		 0.00027033		-0.00036260		 0.00051271	
O		1.06582397		0.68051879		1.33702148		 0.00004693		 0.00028391		-0.00003225	
O		12.95817705		4.04530543		1.33702148		-0.00004693		-0.00028391		-0.00003225	
O		8.07782378		1.68239332		5.70352138		 0.00004693		-0.00028391		-0.00003225	
O		5.94617584		3.04343090		5.70352138		-0.00004693		 0.00028391		-0.00003225	
O		6.02751504		3.05760916		3.16047240		-0.00067321		 0.00048264		 0.00028558	
O		7.99648318		1.66821646		3.16047240		 0.00067321		-0.00048264		 0.00028558	
O		13.03951625		4.03112857		7.52697230		-0.00067321		-0.00048264		 0.00028558	
O		0.98448477		0.69469565		7.52697230		 0.00067321		 0.00048264		 0.00028558	
O		5.81294784		0.72305077		1.39640751		 0.00016247		-0.00042560		-0.00015050	
O		8.21105178		4.00277345		1.39640751		-0.00016247		 0.00042560		-0.00015050	
O		12.82494765		1.63986134		5.76290741		 0.00016247		 0.00042560		-0.00015050	
O		1.19905197		3.08596429		5.76290741		-0.00016247		-0.00042560		-0.00015050	
O		1.24673357		3.23718928		3.03821117		-0.00040165		 0.00022796		 0.00012035	
O		12.77726605		1.48863494		3.03821117		 0.00040165		-0.00022796		 0.00012035	
O		8.25873338		3.85154845		7.40471107		-0.00040165		-0.00022796		 0.00012035	
O		5.76526624		0.87427857		7.40471107		 0.00040165		 0.00022796		 0.00012035	
O		3.64343510		0.02268382		0.06113061		-0.00012535		-0.00006129		-0.00049427	
O		10.38056592		4.70314040		0.06113061		 0.00012535		 0.00006129		-0.00049427	
O		10.65543491		2.34022829		4.42763051		-0.00012535		 0.00006129		-0.00049427	
O		3.36856471		2.38559733		4.42763051		 0.00012535		-0.00006129		-0.00049427	
H		4.20719989		2.83549425		0.87329970		 0.00009110		-0.00055653		 0.00076045	
H		9.81679973		1.89032997		0.87329970		-0.00009110		 0.00055653		 0.00076045	
H		11.21919970		4.25324348		5.23979960		 0.00009110		 0.00055653		 0.00076045	
H		2.80479992		0.47258354		5.23979960		-0.00009110		-0.00055653		 0.00076045	
H		3.78647990		0.85064954		3.92985005		 0.00037403		-0.00061396		-0.00026825	
H		10.23751972		3.87517749		3.92985005		-0.00037403		 0.00061396		-0.00026825	
H		10.79847971		1.51226398		8.29634995		 0.00037403		 0.00061396		-0.00026825	
H		3.22551991		3.21356025		8.29634995		-0.00037403		-0.00061396		-0.00026825	
