# total energy = -49444.6849525 eV	

CRYSTAL	
PRIMVEC	
		14.02399962		0.00000000		0.00000000	
		0.00000000		5.61989346		0.00000000	
		0.00000000		0.00000000		8.73299700	
PRIMCOORD
   70 1	
Mg		2.42755433		1.84276477		0.04628481		-0.00002110		 0.00021397		-0.00016500	
Mg		11.59644529		3.77713430		0.04628481		 0.00002110		-0.00021397		-0.00016500	
Mg		9.43955414		0.96718477		4.41278471		-0.00002110		-0.00021397		-0.00016500	
Mg		4.58444548		4.65271431		4.41278471		 0.00002110		 0.00021397		-0.00016500	
Mg		2.48925993		4.69711289		1.53002257		-0.00034261		-0.00007510		-0.00029930	
Mg		11.53473969		0.92278759		1.53002257		 0.00034261		 0.00007510		-0.00029930	
Mg		9.50125974		3.73273853		5.89652106		-0.00034261		 0.00007510		-0.00029930	
Mg		4.52273988		1.88716195		5.89652106		 0.00034261		-0.00007510		-0.00029930	
Mg		4.54377588		1.94504741		2.83123937		 0.00033959		 0.00008580		 0.00015912	
Mg		9.48022374		3.67485307		2.83123937		-0.00033959		-0.00008580		 0.00015912	
Mg		11.55577569		0.86490353		7.19773927		 0.00033959		-0.00008580		 0.00015912	
Mg		2.46822393		4.75499694		7.19773927		-0.00033959		 0.00008580		 0.00015912	
Mg		0.00000000		2.80994954		7.23616363		0.00000000		0.00000000		-0.00017356	
Mg		7.01199981		0.00000000		2.86966373		0.00000000		0.00000000		-0.00017356	
Mg		0.00000000		2.80994954		1.63307091		0.00000000		0.00000000		 0.00000005	
Mg		7.01199981		0.00000000		5.99957082		0.00000000		0.00000000		 0.00000005	
Mg		0.00000000		0.00000000		5.78561226		0.00000000		0.00000000		 0.00064768	
Mg		7.01199981		2.80994954		1.41911236		0.00000000		0.00000000		 0.00064768	
Mg		0.00000000		0.00000000		3.01725090		0.00000000		0.00000000		-0.00057353	
Mg		7.01199981		2.80994954		7.38375080		0.00000000		0.00000000		-0.00057353	
Si		0.00000000		0.00000000		0.06724368		0.00000000		0.00000000		 0.00011271	
Si		7.01199981		2.80994954		4.43374358		0.00000000		0.00000000		 0.00011271	
Si		5.28143826		0.07924121		0.04453742		-0.00010676		-0.00007726		-0.00003265	
Si		8.74256136		5.54065927		0.04453742		 0.00010676		 0.00007726		-0.00003265	
Si		12.29343807		2.73070833		4.41103732		-0.00010676		 0.00007726		-0.00003265	
Si		1.73056155		2.88919074		4.41103732		 0.00010676		-0.00007726		-0.00003265	
O		5.82416704		3.98338527		8.67710855		 0.00009646		 0.00001247		 0.00002042	
O		8.19983258		1.63651521		8.67710855		-0.00009646		-0.00001247		 0.00002042	
O		12.83616825		4.44646475		4.31060865		 0.00009646		-0.00001247		 0.00002042	
O		1.18783277		1.17343433		4.31060865		-0.00009646		 0.00001247		 0.00002042	
O		1.09807917		3.89515327		0.04366513		 0.00038023		 0.00019072		 0.00018039	
O		12.92592045		1.72474861		0.04366513		-0.00038023		-0.00019072		 0.00018039	
O		8.11007898		4.53469814		4.41016503		 0.00038023		-0.00019072		 0.00018039	
O		5.91392064		1.08520233		4.41016503		-0.00038023		 0.00019072		 0.00018039	
O		3.49898791		0.12363839		3.01375752		 0.00037426		-0.00032445		-0.00053014	
O		10.52501171		5.49626209		3.01375752		-0.00037426		 0.00032445		-0.00053014	
O		10.51098912		2.68631255		7.38025742		 0.00037426		 0.00032445		-0.00053014	
O		3.51301190		2.93358792		7.38025742		-0.00037426		-0.00032445		-0.00053014	
O		3.57892470		2.87738955		1.41474529		 0.00038232		 0.00004320		-0.00023758	
O		10.44507492		2.74251093		1.41474529		-0.00038232		-0.00004320		-0.00023758	
O		10.59092451		5.55246046		5.78124519		 0.00038232		-0.00004320		-0.00023758	
O		3.43307511		0.06743861		5.78124519		-0.00038232		 0.00004320		-0.00023758	
O		1.06582397		0.80926612		1.33702148		-0.00042315		 0.00022969		 0.00039666	
O		12.95817705		4.81063436		1.33702148		 0.00042315		-0.00022969		 0.00039666	
O		8.07782378		2.00068482		5.70352138		-0.00042315		-0.00022969		 0.00039666	
O		5.94617584		3.61921565		5.70352138		 0.00042315		 0.00022969		 0.00039666	
O		6.02751504		3.63607531		3.16047240		-0.00008217		 0.00018409		-0.00005261	
O		7.99648318		1.98382517		3.16047240		 0.00008217		-0.00018409		-0.00005261	
O		13.03951625		4.79377471		7.52697230		-0.00008217		-0.00018409		-0.00005261	
O		0.98448477		0.82612437		7.52697230		 0.00008217		 0.00018409		-0.00005261	
O		5.81294784		0.85984507		1.39640751		 0.00020470		-0.00010404		 0.00011692	
O		8.21105178		4.76005540		1.39640751		-0.00020470		 0.00010404		 0.00011692	
O		12.82494765		1.95010446		5.76290741		 0.00020470		 0.00010404		 0.00011692	
O		1.19905197		3.66979461		5.76290741		-0.00020470		-0.00010404		 0.00011692	
O		1.24673357		3.84963137		3.03821117		-0.00015108		-0.00020141		 0.00004937	
O		12.77726605		1.77026911		3.03821117		 0.00015108		 0.00020141		 0.00004937	
O		8.25873338		4.58021864		7.40471107		-0.00015108		 0.00020141		 0.00004937	
O		5.76526624		1.03968183		7.40471107		 0.00015108		-0.00020141		 0.00004937	
O		3.64343510		0.02697657		0.06113061		-0.00034131		-0.00016554		-0.00041773	
O		10.38056592		5.59292531		0.06113061		 0.00034131		 0.00016554		-0.00041773	
O		10.65543491		2.78297437		4.42763051		-0.00034131		 0.00016554		-0.00041773	
O		3.36856471		2.83692610		4.42763051		 0.00034131		-0.00016554		-0.00041773	
H		4.20719989		3.37194029		0.87329970		 0.00037712		-0.00011839		-0.00004451	
H		9.81679973		2.24796019		0.87329970		-0.00037712		 0.00011839		-0.00004451	
H		11.21919970		5.05790973		5.23979960		 0.00037712		 0.00011839		-0.00004451	
H		2.80479992		0.56198935		5.23979960		-0.00037712		-0.00011839		-0.00004451	
H		3.78647990		1.01158195		3.92985005		-0.00043861		-0.00008834		 0.00084998	
H		10.23751972		4.60831853		3.92985005		 0.00043861		 0.00008834		 0.00084998	
H		10.79847971		1.79836759		8.29634995		-0.00043861		 0.00008834		 0.00084998	
H		3.22551991		3.82153148		8.29634995		 0.00043861		-0.00008834		 0.00084998	
