# total energy = -49447.6179205 eV	

CRYSTAL	
PRIMVEC	
		14.02399962		0.00000000		0.00000000	
		0.00000000		4.98126857		0.00000000	
		0.00000000		0.00000000		8.73299700	
PRIMCOORD
   70 1	
Mg		2.42755433		1.63335981		0.04628481		 0.00014198		 0.00007788		-0.00026611	
Mg		11.59644529		3.34791437		0.04628481		-0.00014198		-0.00007788		-0.00026611	
Mg		9.43955414		0.85727728		4.41278471		 0.00014198		-0.00007788		-0.00026611	
Mg		4.58444548		4.12399830		4.41278471		-0.00014198		 0.00007788		-0.00026611	
Mg		2.48925993		4.16334964		1.53002257		-0.00040246		-0.00020222		 0.00027426	
Mg		11.53473969		0.81792453		1.53002257		 0.00040246		 0.00020222		 0.00027426	
Mg		9.50125974		3.30856303		5.89652106		-0.00040246		 0.00020222		 0.00027426	
Mg		4.52273988		1.67271255		5.89652106		 0.00040246		-0.00020222		 0.00027426	
Mg		4.54377588		1.72401936		2.83123937		 0.00045142		-0.00013500		-0.00011537	
Mg		9.48022374		3.25725622		2.83123937		-0.00045142		 0.00013500		-0.00011537	
Mg		11.55577569		0.76661773		7.19773927		 0.00045142		 0.00013500		-0.00011537	
Mg		2.46822393		4.21465645		7.19773927		-0.00045142		-0.00013500		-0.00011537	
Mg		0.00000000		2.49063849		7.23616363		0.00000000		0.00000000		-0.00000877	
Mg		7.01199981		0.00000000		2.86966373		0.00000000		0.00000000		-0.00000877	
Mg		0.00000000		2.49063849		1.63307091		0.00000000		0.00000000		 0.00044858	
Mg		7.01199981		0.00000000		5.99957082		0.00000000		0.00000000		 0.00044858	
Mg		0.00000000		0.00000000		5.78561226		0.00000000		0.00000000		-0.00066567	
Mg		7.01199981		2.49063849		1.41911236		0.00000000		0.00000000		-0.00066567	
Mg		0.00000000		0.00000000		3.01725090		0.00000000		0.00000000		-0.00031565	
Mg		7.01199981		2.49063849		7.38375080		0.00000000		0.00000000		-0.00031565	
Si		0.00000000		0.00000000		0.06724368		0.00000000		0.00000000		-0.00012059	
Si		7.01199981		2.49063849		4.43374358		0.00000000		0.00000000		-0.00012059	
Si		5.28143826		0.07023640		0.04453742		-0.00027666		-0.00003657		-0.00018191	
Si		8.74256136		4.91103918		0.04453742		 0.00027666		 0.00003657		-0.00018191	
Si		12.29343807		2.42040209		4.41103732		-0.00027666		 0.00003657		-0.00018191	
Si		1.73056155		2.56087349		4.41103732		 0.00027666		-0.00003657		-0.00018191	
O		5.82416704		3.53072842		8.67710855		-0.00015912		-0.00001597		-0.00013394	
O		8.19983258		1.45054716		8.67710855		 0.00015912		 0.00001597		-0.00013394	
O		12.83616825		3.94118425		4.31060865		-0.00015912		 0.00001597		-0.00013394	
O		1.18783277		1.04008993		4.31060865		 0.00015912		-0.00001597		-0.00013394	
O		1.09807917		3.45252219		0.04366513		-0.00012196		 0.00028848		-0.00031257	
O		12.92592045		1.52875339		0.04366513		 0.00012196		-0.00028848		-0.00031257	
O		8.11007898		4.01939048		4.41016503		-0.00012196		-0.00028848		-0.00031257	
O		5.91392064		0.96188370		4.41016503		 0.00012196		 0.00028848		-0.00031257	
O		3.49898791		0.10958774		3.01375752		 0.00043143		-0.00057850		 0.00055294	
O		10.52501171		4.87168644		3.01375752		-0.00043143		 0.00057850		 0.00055294	
O		10.51098912		2.38104935		7.38025742		 0.00043143		 0.00057850		 0.00055294	
O		3.51301190		2.60022623		7.38025742		-0.00043143		-0.00057850		 0.00055294	
O		3.57892470		2.55041299		1.41474529		-0.00013170		-0.00028891		 0.00042316	
O		10.44507492		2.43086260		1.41474529		 0.00013170		 0.00028891		 0.00042316	
O		10.59092451		4.92149969		5.78124519		-0.00013170		 0.00028891		 0.00042316	
O		3.43307511		0.05977449		5.78124519		 0.00013170		-0.00028891		 0.00042316	
O		1.06582397		0.71730374		1.33702148		-0.00015895		 0.00015917		-0.00009550	
O		12.95817705		4.26397184		1.33702148		 0.00015895		-0.00015917		-0.00009550	
O		8.07782378		1.77333335		5.70352138		-0.00015895		-0.00015917		-0.00009550	
O		5.94617584		3.20794083		5.70352138		 0.00015895		 0.00015917		-0.00009550	
O		6.02751504		3.22288480		3.16047240		-0.00070407		 0.00043274		 0.00045009	
O		7.99648318		1.75838938		3.16047240		 0.00070407		-0.00043274		 0.00045009	
O		13.03951625		4.24902787		7.52697230		-0.00070407		-0.00043274		 0.00045009	
O		0.98448477		0.73224771		7.52697230		 0.00070407		 0.00043274		 0.00045009	
O		5.81294784		0.76213566		1.39640751		 0.00011531		-0.00023376		-0.00019819	
O		8.21105178		4.21913992		1.39640751		-0.00011531		 0.00023376		-0.00019819	
O		12.82494765		1.72850283		5.76290741		 0.00011531		 0.00023376		-0.00019819	
O		1.19905197		3.25277275		5.76290741		-0.00011531		-0.00023376		-0.00019819	
O		1.24673357		3.41217374		3.03821117		-0.00016858		-0.00003171		-0.00015494	
O		12.77726605		1.56910184		3.03821117		 0.00016858		 0.00003171		-0.00015494	
O		8.25873338		4.05973893		7.40471107		-0.00016858		 0.00003171		-0.00015494	
O		5.76526624		0.92153665		7.40471107		 0.00016858		-0.00003171		-0.00015494	
O		3.64343510		0.02390952		0.06113061		-0.00017210		-0.00014709		-0.00025528	
O		10.38056592		4.95736466		0.06113061		 0.00017210		 0.00014709		-0.00025528	
O		10.65543491		2.46672757		4.42763051		-0.00017210		 0.00014709		-0.00025528	
O		3.36856471		2.51454801		4.42763051		 0.00017210		-0.00014709		-0.00025528	
H		4.20719989		2.98876535		0.87329970		 0.00004003		-0.00042763		 0.00046228	
H		9.81679973		1.99251023		0.87329970		-0.00004003		 0.00042763		 0.00046228	
H		11.21919970		4.48314732		5.23979960		 0.00004003		 0.00042763		 0.00046228	
H		2.80479992		0.49812826		5.23979960		-0.00004003		-0.00042763		 0.00046228	
H		3.78647990		0.89663003		3.92985005		 0.00020444		-0.00078923		-0.00011788	
H		10.23751972		4.08464556		3.92985005		-0.00020444		 0.00078923		-0.00011788	
H		10.79847971		1.59400847		8.29634995		 0.00020444		 0.00078923		-0.00011788	
H		3.22551991		3.38726711		8.29634995		-0.00020444		-0.00078923		-0.00011788	
