# total energy = -49447.9653344 eV	

CRYSTAL	
PRIMVEC	
		14.02399962		0.00000000		0.00000000	
		0.00000000		5.23672975		0.00000000	
		0.00000000		0.00000000		8.73299700	
PRIMCOORD
   70 1	
Mg		2.42755433		1.71712235		0.04628481		 0.00027067		-0.00026520		 0.00010153	
Mg		11.59644529		3.51960318		0.04628481		-0.00027067		 0.00026520		 0.00010153	
Mg		9.43955414		0.90123971		4.41278471		 0.00027067		 0.00026520		 0.00010153	
Mg		4.58444548		4.33548442		4.41278471		-0.00027067		-0.00026520		 0.00010153	
Mg		2.48925993		4.37685522		1.53002257		-0.00009742		-0.00041778		-0.00035277	
Mg		11.53473969		0.85987032		1.53002257		 0.00009742		 0.00041778		-0.00035277	
Mg		9.50125974		3.47823239		5.89652106		-0.00009742		 0.00041778		-0.00035277	
Mg		4.52273988		1.75849175		5.89652106		 0.00009742		-0.00041778		-0.00035277	
Mg		4.54377588		1.81243086		2.83123937		-0.00014362		-0.00068059		 0.00054352	
Mg		9.48022374		3.42429468		2.83123937		 0.00014362		 0.00068059		 0.00054352	
Mg		11.55577569		0.80593261		7.19773927		-0.00014362		 0.00068059		 0.00054352	
Mg		2.46822393		4.43079293		7.19773927		 0.00014362		-0.00068059		 0.00054352	
Mg		0.00000000		2.61836347		7.23616363		0.00000000		0.00000000		-0.00056120	
Mg		7.01199981		0.00000000		2.86966373		0.00000000		0.00000000		-0.00056120	
Mg		0.00000000		2.61836347		1.63307091		0.00000000		0.00000000		-0.00078582	
Mg		7.01199981		0.00000000		5.99957082		0.00000000		0.00000000		-0.00078582	
Mg		0.00000000		0.00000000		5.78561226		0.00000000		0.00000000		 0.00007257	
Mg		7.01199981		2.61836347		1.41911236		0.00000000		0.00000000		 0.00007257	
Mg		0.00000000		0.00000000		3.01725090		0.00000000		0.00000000		 0.00076680	
Mg		7.01199981		2.61836347		7.38375080		0.00000000		0.00000000		 0.00076680	
Si		0.00000000		0.00000000		0.06724368		0.00000000		0.00000000		-0.00017452	
Si		7.01199981		2.61836347		4.43374358		0.00000000		0.00000000		-0.00017452	
Si		5.28143826		0.07383776		0.04453742		 0.00014296		-0.00029584		-0.00021110	
Si		8.74256136		5.16288638		0.04453742		-0.00014296		 0.00029584		-0.00021110	
Si		12.29343807		2.54452431		4.41103732		 0.00014296		 0.00029584		-0.00021110	
Si		1.73056155		2.69220123		4.41103732		-0.00014296		-0.00029584		-0.00021110	
O		5.82416704		3.71179088		8.67710855		-0.00016201		-0.00042183		 0.00015557	
O		8.19983258		1.52493466		8.67710855		 0.00016201		 0.00042183		 0.00015557	
O		12.83616825		4.14329673		4.31060865		-0.00016201		 0.00042183		 0.00015557	
O		1.18783277		1.09342741		4.31060865		 0.00016201		-0.00042183		 0.00015557	
O		1.09807917		3.62957378		0.04366513		-0.00027061		-0.00052619		 0.00030564	
O		12.92592045		1.60715036		0.04366513		 0.00027061		 0.00052619		 0.00030564	
O		8.11007898		4.22551383		4.41016503		-0.00027061		 0.00052619		 0.00030564	
O		5.91392064		1.01121171		4.41016503		 0.00027061		-0.00052619		 0.00030564	
O		3.49898791		0.11520856		3.01375752		-0.00057594		 0.00056850		-0.00007795	
O		10.52501171		5.12151698		3.01375752		 0.00057594		-0.00056850		-0.00007795	
O		10.51098912		2.50315491		7.38025742		-0.00057594		-0.00056850		-0.00007795	
O		3.51301190		2.73357063		7.38025742		 0.00057594		 0.00056850		-0.00007795	
O		3.57892470		2.68120361		1.41474529		-0.00061052		-0.00074769		 0.00061339	
O		10.44507492		2.55552193		1.41474529		 0.00061052		 0.00074769		 0.00061339	
O		10.59092451		5.17388400		5.78124519		-0.00061052		 0.00074769		 0.00061339	
O		3.43307511		0.06284154		5.78124519		 0.00061052		-0.00074769		 0.00061339	
O		1.06582397		0.75408729		1.33702148		 0.00046828		 0.00039842		 0.00007332	
O		12.95817705		4.48263685		1.33702148		-0.00046828		-0.00039842		 0.00007332	
O		8.07782378		1.86427338		5.70352138		 0.00046828		-0.00039842		 0.00007332	
O		5.94617584		3.37245076		5.70352138		-0.00046828		 0.00039842		 0.00007332	
O		6.02751504		3.38816044		3.16047240		 0.00023751		 0.00000596		-0.00034020	
O		7.99648318		1.84856369		3.16047240		-0.00023751		-0.00000596		-0.00034020	
O		13.03951625		4.46692716		7.52697230		 0.00023751		-0.00000596		-0.00034020	
O		0.98448477		0.76979838		7.52697230		-0.00023751		 0.00000596		-0.00034020	
O		5.81294784		0.80121915		1.39640751		 0.00025375		 0.00023950		-0.00049102	
O		8.21105178		4.43550639		1.39640751		-0.00025375		-0.00023950		-0.00049102	
O		12.82494765		1.81714432		5.76290741		 0.00025375		-0.00023950		-0.00049102	
O		1.19905197		3.41958121		5.76290741		-0.00025375		 0.00023950		-0.00049102	
O		1.24673357		3.58715679		3.03821117		-0.00022409		-0.00030892		-0.00032469	
O		12.77726605		1.64956735		3.03821117		 0.00022409		 0.00030892		-0.00032469	
O		8.25873338		4.26793082		7.40471107		-0.00022409		 0.00030892		-0.00032469	
O		5.76526624		0.96879332		7.40471107		 0.00022409		-0.00030892		-0.00032469	
O		3.64343510		0.02513662		0.06113061		 0.00023579		 0.00002585		 0.00031104	
O		10.38056592		5.21158892		0.06113061		-0.00023579		-0.00002585		 0.00031104	
O		10.65543491		2.59322545		4.42763051		 0.00023579		-0.00002585		 0.00031104	
O		3.36856471		2.64349869		4.42763051		-0.00023579		 0.00002585		 0.00031104	
H		4.20719989		3.14203504		0.87329970		-0.00063189		-0.00016592		 0.00039286	
H		9.81679973		2.09469050		0.87329970		 0.00063189		 0.00016592		 0.00039286	
H		11.21919970		4.71305256		5.23979960		-0.00063189		 0.00016592		 0.00039286	
H		2.80479992		0.52367297		5.23979960		 0.00063189		-0.00016592		 0.00039286	
H		3.78647990		0.94261051		3.92985005		 0.00083874		-0.00083878		-0.00035807	
H		10.23751972		4.29411503		3.92985005		-0.00083874		 0.00083878		-0.00035807	
H		10.79847971		1.67575156		8.29634995		 0.00083874		 0.00083878		-0.00035807	
H		3.22551991		3.56097258		8.29634995		-0.00083874		-0.00083878		-0.00035807	
