# total energy = -4139.11446642 eV	

CRYSTAL	
PRIMVEC	
		3.55587076		0.00000000		0.00000000	
		-1.77793538		2.86462726		0.00000000	
		0.00000000		0.00000000		4.98288080	
PRIMCOORD
   4 1	
Mg		0.00000000		1.90975186		0.01076184		0.00000000		 0.00094271		-0.00084041	
Mg		1.77793502		0.95487611		2.50220189		0.00000000		-0.00094271		-0.00084041	
O		0.00000000		1.90975186		2.00531198		0.00000000		 0.00012075		 0.00084041	
O		1.77793502		0.95487611		4.49675273		0.00000000		-0.00012075		 0.00084041	
