# total energy = -24712.6056283 eV	

CRYSTAL	
PRIMVEC	
		8.65194297		0.00000000		0.00000000	
		0.00000000		8.82246412		0.00000000	
		-1.46468743		0.00000000		4.91196758	
PRIMCOORD
   40 1	
Mg		1.83400686		5.76459580		1.07424773		 0.00035624		-0.00000954		-0.00021012	
Mg		5.35325128		3.05786486		3.83772158		-0.00035624		 0.00000954		 0.00021012	
Mg		6.08559327		1.35336461		1.38173692		-0.00035624		-0.00000954		 0.00021012	
Mg		1.10166488		7.46909518		3.53023326		 0.00035624		 0.00000954		-0.00021012	
Mg		1.90400886		0.10675200		1.06000318		-0.00007634		-0.00090456		-0.00024209	
Mg		5.28324841		8.71570866		3.85196700		 0.00007634		 0.00090456		 0.00024209	
Mg		6.01559126		4.51798233		1.39598235		 0.00007634		-0.00090456		 0.00024209	
Mg		1.17166688		4.30447833		3.51598783		-0.00007634		 0.00090456		-0.00024209	
Si		-0.03660983		2.99610729		1.46327629		-0.00056703		-0.00022321		 0.00004734	
Si		7.22386797		5.82635337		3.44869389		 0.00056703		 0.00022321		-0.00004734	
Si		7.95620996		7.40733675		0.99270923		 0.00056703		-0.00022321		-0.00004734	
Si		-0.76895181		1.41512304		3.91926095		-0.00056703		 0.00022321		 0.00004734	
Si		4.45148176		7.39057534		1.11108771		-0.00034780		 0.00014540		-0.00068147	
Si		2.73577638		1.43188531		3.80088161		 0.00034780		-0.00014540		 0.00068147	
Si		3.46811836		2.97934501		1.34489695		 0.00034780		 0.00014540		 0.00068147	
Si		3.71913978		5.84311478		3.56707236		-0.00034780		-0.00014540		-0.00068147	
O		7.24418879		3.00757717		0.92295899		-0.00023732		 0.00073665		 0.00018721	
O		-0.05693065		5.81488262		3.98901118		 0.00023732		-0.00073665		-0.00018721	
O		0.67541133		7.41880663		1.53302566		 0.00023732		 0.00073665		-0.00018721	
O		6.51184681		1.40365316		3.37894365		-0.00023732		-0.00073665		 0.00018721	
O		0.61248662		4.41652272		1.57576020		 0.00047737		 0.00025753		-0.00009326	
O		6.57477066		4.40593707		3.33620997		-0.00047737		-0.00025753		 0.00009326	
O		7.30711264		0.00529326		0.88022532		-0.00047737		 0.00025753		 0.00009326	
O		-0.11985537		8.81716740		4.03174486		 0.00047737		-0.00025753		-0.00009326	
O		0.00658326		2.47911130		3.00710823		-0.00021046		 0.00028170		 0.00071475	
O		7.18067488		6.34334935		1.90486195		 0.00021046		-0.00028170		-0.00071475	
O		6.44833290		6.89034163		4.36084660		 0.00021046		 0.00028170		-0.00071475	
O		0.73892525		1.93211903		0.55112271		-0.00021046		-0.00028170		 0.00071475	
O		3.05425700		7.39233861		0.62922293		-0.00076326		 0.00052504		 0.00000704	
O		4.13300115		1.43012118		4.28274724		 0.00076326		-0.00052504		-0.00000704	
O		4.86534313		2.98110914		1.82676172		 0.00076326		 0.00052504		-0.00000704	
O		2.32191501		5.84135065		3.08520759		-0.00076326		-0.00052504		 0.00000704	
O		4.92832927		8.61424992		1.95791133		-0.00035592		 0.00074889		 0.00021163	
O		2.25892887		0.20820987		2.95405884		 0.00035592		-0.00074889		-0.00021163	
O		2.99127085		4.20301959		0.49807419		 0.00035592		 0.00074889		-0.00021163	
O		4.19598729		4.61944020		4.41389599		-0.00035592		-0.00074889		 0.00021163	
O		4.57088636		6.13161035		2.20203629		-0.00019729		-0.00037316		-0.00087948	
O		2.61637178		2.69085030		2.70993389		 0.00019729		 0.00037316		 0.00087948	
O		3.34871463		1.72038003		0.25394923		 0.00019729		-0.00037316		 0.00087948	
O		3.83854265		7.10208063		4.65802094		-0.00019729		 0.00037316		-0.00087948	
