# total energy = -24716.5282923 eV	

CRYSTAL	
PRIMVEC	
		9.37293791		0.00000000		0.00000000	
		0.00000000		8.82245589		0.00000000	
		-1.58674466		0.00000000		4.91197247	
PRIMCOORD
   40 1	
Mg		1.98684070		5.76459583		1.07424835		 0.00036756		 0.00012000		-0.00004279	
Mg		5.79935537		3.05786476		3.83772225		-0.00036756		-0.00012000		 0.00004279	
Mg		6.59272582		1.35336507		1.38173695		-0.00036756		 0.00012000		 0.00004279	
Mg		1.19347024		7.46909458		3.53023271		 0.00036756		-0.00012000		-0.00004279	
Mg		2.06267714		0.10675214		1.06000336		 0.00061971		 0.00051219		 0.00003093	
Mg		5.72351892		8.71570938		3.85196724		-0.00061971		-0.00051219		-0.00003093	
Mg		6.51689032		4.51798196		1.39598194		-0.00061971		 0.00051219		-0.00003093	
Mg		1.26930575		4.30447768		3.51598772		 0.00061971		-0.00051219		 0.00003093	
Si		-0.03966065		2.99610741		1.46327589		-0.00012016		 0.00034247		 0.00011867	
Si		7.82585671		5.82635318		3.44869377		 0.00012016		-0.00034247		-0.00011867	
Si		8.61922811		7.40733723		0.99270941		 0.00012016		 0.00034247		-0.00011867	
Si		-0.83303204		1.41512335		3.91926118		-0.00012016		-0.00034247		 0.00011867	
Si		4.82243935		7.39057466		1.11108774		 0.00019632		-0.00053930		-0.00031842	
Si		2.96375671		1.43188498		3.80088191		-0.00019632		 0.00053930		 0.00031842	
Si		3.75712810		2.97934484		1.34489662		-0.00019632		-0.00053930		 0.00031842	
Si		4.02906796		5.84311480		3.56707210		 0.00019632		 0.00053930		-0.00031842	
O		7.84787093		3.00757707		0.92295882		-0.00027170		 0.00008179		-0.00006938	
O		-0.06167487		5.81488257		3.98901084		 0.00027170		-0.00008179		 0.00006938	
O		0.73169559		7.41880689		1.53302554		 0.00027170		 0.00008179		 0.00006938	
O		7.05449954		1.40365275		3.37894412		-0.00027170		-0.00008179		-0.00006938	
O		0.66352808		4.41652272		1.57575958		 0.00011031		 0.00013459		-0.00011985	
O		7.12266798		4.40593692		3.33621008		-0.00011031		-0.00013459		 0.00011985	
O		7.91603937		0.00529290		0.88022478		-0.00011031		 0.00013459		 0.00011985	
O		-0.12984331		8.81716675		4.03174487		 0.00011031		-0.00013459		-0.00011985	
O		0.00713093		2.47911115		3.00710842		-0.00032554		 0.00026897		 0.00037325	
O		7.77906513		6.34334850		1.90486217		 0.00032554		-0.00026897		-0.00037325	
O		6.98569374		6.89034191		4.36084653		 0.00032554		 0.00026897		-0.00037325	
O		0.80050232		1.93211868		0.55112313		-0.00032554		-0.00026897		 0.00037325	
O		3.30877830		7.39233865		0.62922313		 0.00034608		-0.00047818		 0.00012319	
O		4.47741776		1.43012099		4.28274653		-0.00034608		 0.00047818		-0.00012319	
O		5.27078915		2.98110883		1.82676217		-0.00034608		-0.00047818		-0.00012319	
O		2.51540691		5.84135081		3.08520843		 0.00034608		 0.00047818		 0.00012319	
O		5.33902320		8.61425014		1.95791113		 0.00021005		-0.00040031		 0.00054028	
O		2.44717286		0.20821044		2.95405853		-0.00021005		 0.00040031		-0.00054028	
O		3.24054425		4.20302032		0.49807417		-0.00021005		-0.00040031		-0.00054028	
O		4.54565181		4.61944026		4.41389642		 0.00021005		 0.00040031		 0.00054028	
O		4.95179340		6.13161008		2.20203585		-0.00029462		-0.00022511		-0.00020547	
O		2.83440267		2.69084956		2.70993380		 0.00029462		 0.00022511		 0.00020547	
O		3.62777406		1.72038026		0.25394944		 0.00029462		-0.00022511		 0.00020547	
O		4.15842200		7.10208126		4.65802115		-0.00029462		 0.00022511		-0.00020547	
