# total energy = -18495.693124 eV

CRYSTAL
PRIMVEC
		7.02600240		-1.12416351		0.00000000
		-0.99647830		6.22800007		0.00000000
		-0.43440010		0.06950288		4.23980364
PRIMECORD
   30 1
Mg		-0.08234611		1.53031562		2.28101501		 0.00009041		 0.00026045		 0.00013889
Mg		5.67746370		3.64302808		1.95879005		-0.00009041		-0.00026045		-0.00013889
Mg		4.48151399		0.80009923		3.88789978		 0.00015781		 0.00057126		 0.00018746
Mg		1.11360431		4.37324589		0.35190386		-0.00015781		-0.00057126		-0.00018746
Mg		2.55708688		1.10800666		0.17807195		-0.00031298		-0.00002677		 0.00026688
Mg		3.03803071		4.06533775		4.06173169		 0.00031298		 0.00002677		-0.00026688
Si		0.00000000		0.00000000		0.00000000		0.00000000		0.00000000		0.00000000
Si		-0.49823986		3.11400003		0.00000000		0.00000000		0.00000000		0.00000000
Si		1.57725426		2.79405768		2.35309081		-0.00000692		-0.00030101		-0.00026154
Si		4.01786404		2.37928673		1.88671283		 0.00000692		 0.00030101		 0.00026154
Si		4.51211788		-0.70980170		1.88671283		 0.00040039		-0.00002129		-0.00001827
Si		1.08299971		5.88314611		2.35309081		-0.00040039		 0.00002129		 0.00001827
O		4.94574668		2.60707587		0.59357294		 0.00014880		 0.00002478		-0.00000553
O		0.64937091		2.56626783		3.64623213		-0.00014880		-0.00002478		 0.00000553
O		1.02803423		0.19962795		3.64623213		-0.00029786		-0.00018533		-0.00028289
O		4.56708407		4.97371575		0.59357294		 0.00029786		 0.00018533		 0.00028289
O		5.42376894		1.80843315		2.77707188		 0.00008901		-0.00023266		-0.00004371
O		0.17134864		3.36491055		1.46273318		-0.00008901		 0.00023266		 0.00004371
O		-0.20930627		5.74400658		1.46273318		-0.00007781		 0.00027112		 0.00045840
O		5.80442385		-0.57066289		2.77707188		 0.00007781		-0.00027112		-0.00045840
O		1.71447761		1.24282431		1.81887566		 0.00010239		 0.00013482		 0.00027913
O		3.88064069		3.93052010		2.42092798		-0.00010239		-0.00013482		-0.00027913
O		2.55930189		2.95856419		1.03027201		-0.00026712		 0.00009723		 0.00031342
O		3.03581570		2.21478022		3.20953162		 0.00026712		-0.00009723		-0.00031342
O		3.42444266		-0.21413973		3.20953162		-0.00043414		-0.00011442		-0.00022465
O		2.17067492		5.38748414		1.03027201		 0.00043414		 0.00011442		 0.00022465
O		4.13965560		0.85479575		1.32705884		-0.00030367		-0.00045172		 0.00006468
O		1.45546199		4.31854866		2.91274622		 0.00030367		 0.00045172		-0.00006468
O		6.57191693		0.46563371		0.49181682		-0.00013461		-0.00001149		 0.00058659
O		-0.97679863		4.70770999		3.74798681		 0.00013461		 0.00001149		-0.00058659
