# total energy = -18511.5543547 eV

CRYSTAL
PRIMVEC
		7.02600000		-0.28103972		0.00000000
		-0.24912320		6.22800274		0.00000000
		-0.43439931		0.01737513		4.23980564
PRIMECORD
   30 1
Mg		0.10449407		1.55032908		2.28101477		 0.00012942		-0.00051504		 0.00004424
Mg		6.23798342		4.41400695		1.95879016		-0.00012942		 0.00051504		-0.00004424
Mg		4.66835394		1.36777491		3.88789987		-0.00001567		 0.00006311		 0.00050322
Mg		1.67412494		4.59656183		0.35190366		 0.00001567		-0.00006311		-0.00050322
Mg		2.74392660		1.44475215		0.17807222		 0.00005310		 0.00025707		 0.00020325
Mg		3.59855089		4.51958389		4.06173202		-0.00005310		-0.00025707		-0.00020325
Si		0.00000000		0.00000000		0.00000000		0.00000000		0.00000000		0.00000000
Si		-0.12456020		3.11399996		0.00000000		0.00000000		0.00000000		0.00000000
Si		1.95242866		3.04335611		2.35309097		 0.00033675		-0.00013500		-0.00023524
Si		4.39004882		2.92097993		1.88671326		-0.00033675		 0.00013500		 0.00023524
Si		4.51361264		-0.16810912		1.88671326		-0.00005098		 0.00021935		 0.00051085
Si		1.82886484		6.13244445		2.35309097		 0.00005098		-0.00021935		-0.00051085
O		5.36426899		3.26752902		0.59357265		 0.00015311		-0.00015883		-0.00023336
O		0.97820990		2.69680702		3.64623159		-0.00015311		 0.00015883		 0.00023336
O		1.07287517		0.33016682		3.64623159		 0.00046800		-0.00017024		-0.00043020
O		5.26960301		5.63416851		0.59357265		-0.00046800		 0.00017024		 0.00043020
O		5.75335444		2.51201890		2.77707153		 0.00028574		-0.00033829		 0.00000885
O		0.58912304		3.45231713		1.46273270		-0.00028574		 0.00033829		-0.00000885
O		0.49395923		5.83141243		1.46273270		-0.00002810		 0.00002879		-0.00016724
O		5.84851896		0.13292290		2.77707153		 0.00002810		-0.00002879		 0.00016724
O		1.90131794		1.47845610		1.81887573		 0.00029423		 0.00049428		 0.00011122
O		4.44116095		4.48587994		2.42092780		-0.00029423		-0.00049428		-0.00011122
O		2.97408693		3.33204552		1.03027200		 0.00011581		 0.00003088		 0.00003453
O		3.36839055		2.63228981		3.20953153		-0.00011581		-0.00003088		-0.00003453
O		3.46554783		0.20336987		3.20953153		 0.00052605		 0.00012098		 0.00026893
O		2.87692966		5.76096546		1.03027200		-0.00052605		-0.00012098		-0.00026893
O		4.32649565		1.38144860		1.32705903		-0.00002068		 0.00014135		 0.00011916
O		2.01598183		4.58288673		2.91274591		 0.00002068		-0.00014135		-0.00011916
O		6.75875702		1.28415913		0.49181670		 0.00041814		 0.00035313		 0.00012888
O		-0.41627883		4.68017761		3.74798684		-0.00041814		-0.00035313		-0.00012888
