# total energy = -18495.6928676 eV

CRYSTAL
PRIMVEC
		7.02600240		1.12416351		0.00000000
		0.99647830		6.22800007		0.00000000
		-0.43440010		-0.06950288		4.23980364
PRIMECORD
   30 1
Mg		0.41589375		1.58368370		2.28101501		 0.00018890		-0.00028482		 0.00022216
Mg		7.17218400		5.69897202		1.95879005		-0.00018890		 0.00028482		-0.00022216
Mg		4.97975385		2.31390080		3.88789978		 0.00041102		-0.00034823		-0.00005135
Mg		2.60832461		4.96875350		0.35190386		-0.00041102		 0.00034823		 0.00005135
Mg		3.05532674		2.00599266		0.17807195		 0.00001896		-0.00037914		 0.00023584
Mg		4.53275101		5.27666306		4.06173169		-0.00001896		 0.00037914		-0.00023584
Si		0.00000000		0.00000000		0.00000000		0.00000000		0.00000000		0.00000000
Si		0.49823986		3.11400003		0.00000000		0.00000000		0.00000000		0.00000000
Si		2.57772001		3.45885399		2.35309081		-0.00047847		-0.00009711		 0.00012851
Si		5.01035774		3.82380173		1.88671283		 0.00047847		 0.00009711		-0.00012851
Si		4.51610391		0.73471401		1.88671283		 0.00014732		 0.00009559		 0.00004979
Si		3.07197385		6.54794171		2.35309081		-0.00014732		-0.00009559		-0.00004979
O		6.06180508		4.36828364		0.59357294		 0.00003447		-0.00001751		 0.00007267
O		1.52627409		2.91437208		3.64623213		-0.00003447		 0.00001751		-0.00007267
O		1.14761077		0.54773220		3.64623213		-0.00020639		 0.00018327		-0.00023704
O		6.44046698		6.73492352		0.59357294		 0.00020639		-0.00018327		 0.00023704
O		6.30266372		3.68466292		2.77707188		 0.00023177		-0.00012927		-0.00014913
O		1.28541403		3.59799280		1.46273318		-0.00023177		 0.00012927		 0.00014913
O		1.66606894		5.97708884		1.46273318		-0.00000259		 0.00015362		 0.00002987
O		5.92200881		1.30556688		2.77707188		 0.00000259		-0.00015362		-0.00002987
O		2.21271819		1.87117572		1.81887566		-0.00016803		 0.00006138		 0.00025525
O		5.37536099		5.41148000		2.42092798		 0.00016803		-0.00006138		-0.00025525
O		3.66539522		3.95451595		1.03027201		 0.00050085		-0.00022115		 0.00022619
O		3.92268253		3.32813977		3.20953162		-0.00050085		 0.00022115		-0.00022619
O		3.53405556		0.89921981		3.20953162		 0.00014214		-0.00012384		 0.00007728
O		4.05402219		6.38343591		1.03027201		-0.00014214		 0.00012384		-0.00007728
O		4.63789617		2.25920357		1.32705884		-0.00028077		 0.00030284		-0.00003664
O		2.95018158		5.02345215		2.91274622		 0.00028077		-0.00030284		 0.00003664
O		7.07015679		2.64836561		0.49181682		-0.00016247		-0.00002986		 0.00016055
O		0.51792096		4.63429011		3.74798681		 0.00016247		 0.00002986		-0.00016055
