# total energy = -18507.1776143 eV

CRYSTAL
PRIMVEC
		7.02599785		0.56207842		0.00000000
		0.49824063		6.22800086		0.00000000
		-0.43440285		-0.03474884		4.23980308
PRIMECORD
   30 1
Mg		0.29133417		1.57034187		2.28101494		 0.00059519		 0.00022315		 0.00018429
Mg		6.79850358		5.18498574		1.95879025		-0.00059519		-0.00022315		-0.00018429
Mg		4.85519384		1.93545073		3.88790019		 0.00019160		 0.00004377		 0.00067416
Mg		2.23464462		4.81987689		0.35190430		-0.00019160		-0.00004377		-0.00067416
Mg		2.93076688		1.78149713		0.17807197		-0.00009806		 0.00004937		-0.00031671
Mg		4.15907087		4.97383118		4.06173181		 0.00009806		-0.00004937		 0.00031671
Si		0.00000000		0.00000000		0.00000000		0.00000000		0.00000000		0.00000000
Si		0.24912032		3.11399972		0.00000000		0.00000000		0.00000000		0.00000000
Si		2.32760377		3.29265460		2.35309095		 0.00008179		-0.00020152		-0.00024860
Si		4.76223398		3.46267301		1.88671283		-0.00008179		 0.00020152		 0.00024860
Si		4.51510697		0.37358532		1.88671283		 0.00003887		 0.00038339		-0.00013338
Si		2.57473079		6.38174300		2.35309095		-0.00003887		-0.00038339		 0.00013338
O		5.78278992		3.92798189		0.59357299		 0.00009888		-0.00031447		-0.00014257
O		1.30704783		2.82734572		3.64623220		-0.00009888		 0.00031447		 0.00014257
O		1.11771667		0.46070624		3.64623220		-0.00000121		 0.00018086		-0.00047712
O		5.97212108		6.29462207		0.59357299		 0.00000121		-0.00018086		 0.00047712
O		6.08294100		3.21560591		2.77707197		-0.00008958		-0.00043113		-0.00014510
O		1.00689816		3.53972311		1.46273322		 0.00008958		 0.00043113		 0.00014510
O		1.19722527		5.91881861		1.46273322		 0.00029146		-0.00019055		-0.00041754
O		5.89261319		0.83650900		2.77707197		-0.00029146		 0.00019055		 0.00041754
O		2.08815815		1.71408790		1.81887575		 0.00020453		 0.00014739		 0.00011121
O		5.00168101		5.04123971		2.42092803		-0.00020453		-0.00014739		-0.00011121
O		3.38887225		3.70552796		1.03027223		-0.00008804		 0.00017319		-0.00009974
O		3.70096691		3.04979965		3.20953226		 0.00008804		-0.00017319		 0.00009974
O		3.50665321		0.62088009		3.20953226		 0.00030495		 0.00014831		 0.00005246
O		3.58318525		6.13444752		1.03027223		-0.00030495		-0.00014831		-0.00005246
O		4.51333569		1.90810205		1.32705908		-0.00013774		 0.00019104		-0.00004942
O		2.57650206		4.84722557		2.91274612		 0.00013774		-0.00019104		 0.00004942
O		6.94559692		2.10268289		0.49181668		 0.00028901		 0.00013920		 0.00042126
O		0.14424083		4.65264472		3.74798710		-0.00028901		-0.00013920		-0.00042126
