# total energy = -38085.476814 eV

CRYSTAL
PRIMVEC
		5.69209984		0.00000000		0.00000000
		0.00000000		11.46000138		-1.83360181
		0.00000000		-1.32048178		8.25299833
PRIMECORD
   58 1
O		1.53572911		0.09732922		7.96905476		-0.00051948		-0.00040004		 0.00088183
O		4.15637074		10.04219095		-1.54965369		 0.00051948		 0.00040004		-0.00088183
O		4.15637074		3.01046110		7.50295375		 0.00032462		 0.00050541		 0.00003111
O		1.53572911		7.12905906		-1.08355325		-0.00032462		-0.00050541		-0.00003111
O		1.53572911		10.04219095		-1.54965369		-0.00051948		 0.00040004		-0.00088183
O		4.15637074		0.09732922		7.96905476		 0.00051948		-0.00040004		 0.00088183
O		4.15637074		7.12905906		-1.08355325		 0.00032462		-0.00050541		-0.00003111
O		1.53572911		3.01046110		7.50295375		-0.00032462		 0.00050541		 0.00003111
O		2.84604992		4.61191461		5.33842008		0.00000000		 0.00011951		 0.00029624
O		2.84604992		5.52760499		1.08098099		0.00000000		-0.00011951		-0.00029624
O		2.84604992		-0.87742524		6.21671393		0.00000000		 0.00006834		-0.00054274
O		2.84604992		11.01694484		0.20268600		0.00000000		-0.00006834		 0.00054274
O		0.00000000		1.91848013		5.45734968		0.00000000		 0.00011952		 0.00092077
O		0.00000000		8.22104004		0.96205026		0.00000000		-0.00011952		-0.00092077
O		0.00000000		2.57621081		1.34653111		0.00000000		-0.00008942		 0.00054741
O		0.00000000		7.56330879		5.07286882		0.00000000		 0.00008942		-0.00054741
O		2.84604992		7.64597061		4.55623107		0.00000000		-0.00084852		 0.00005696
O		2.84604992		2.49354899		1.86316886		0.00000000		 0.00084852		-0.00005696
O		2.84604992		8.30872000		0.41405017		0.00000000		 0.00040385		 0.00014978
O		2.84604992		1.83080016		6.00534976		0.00000000		-0.00040385		-0.00014978
O		0.00000000		11.00215448		0.29512001		0.00000000		-0.00029917		-0.00003029
O		0.00000000		-0.86263489		6.12428106		0.00000000		 0.00029917		 0.00003029
O		0.00000000		5.51281464		1.17341386		0.00000000		-0.00005585		 0.00014023
O		0.00000000		4.62670382		5.24598607		0.00000000		 0.00005585		-0.00014023
O		4.38177903		6.48756909		2.92575412		-0.00030191		-0.00018504		-0.00001162
O		1.31032081		3.65194994		3.49364581		 0.00030191		 0.00018504		 0.00001162
O		1.31032081		9.40070098		2.45965311		-0.00004694		 0.00024253		 0.00013323
O		4.38177903		0.73881919		3.95974682		 0.00004694		-0.00024253		-0.00013323
O		4.38177903		3.65194994		3.49364581		-0.00030191		 0.00018504		 0.00001162
O		1.31032081		6.48756909		2.92575412		 0.00030191		-0.00018504		-0.00001162
O		1.31032081		0.73881919		3.95974682		-0.00004694		-0.00024253		-0.00013323
O		4.38177903		9.40070098		2.45965311		 0.00004694		 0.00024253		 0.00013323
H		2.84604992		7.81393593		3.50644962		0.00000000		 0.00058355		-0.00043226
H		2.84604992		2.32558367		2.91295088		0.00000000		-0.00058355		 0.00043226
H		0.00000000		2.40824605		2.39631313		0.00000000		 0.00035046		-0.00093881
H		0.00000000		7.73127355		4.02308680		0.00000000		-0.00035046		 0.00093881
Mg		2.84604992		5.06975980		3.20969997		0.00000000		0.00000000		0.00000000
Mg		2.84604992		-0.66023975		4.12649974		0.00000000		0.00000000		0.00000000
Mg		0.00000000		0.00000000		0.00000000		0.00000000		0.00000000		0.00000000
Mg		0.00000000		5.73000012		-0.91679977		0.00000000		0.00000000		0.00000000
Mg		1.42302496		1.11842419		1.83148322		-0.00028653		 0.00004952		 0.00035431
Mg		4.26907488		9.02109598		4.58791672		 0.00028653		-0.00004952		-0.00035431
Mg		4.26907488		3.95133561		1.37821675		-0.00037588		 0.00000991		 0.00032040
Mg		1.42302496		6.18818399		5.04118261		 0.00037588		-0.00000991		-0.00032040
Mg		1.42302496		9.02109598		4.58791672		-0.00028653		-0.00004952		-0.00035431
Mg		4.26907488		1.11842419		1.83148322		 0.00028653		 0.00004952		 0.00035431
Mg		4.26907488		6.18818399		5.04118261		-0.00037588		-0.00000991		-0.00032040
Mg		1.42302496		3.95133561		1.37821675		 0.00037588		 0.00000991		 0.00032040
Mg		0.00000000		1.58400210		7.54783482		0.00000000		 0.00058875		 0.00059853
Mg		0.00000000		8.55551750		-1.12843489		0.00000000		-0.00058875		-0.00059853
Si		2.84604992		6.95237799		-0.17471616		0.00000000		 0.00015057		-0.00026716
Si		2.84604992		3.18714217		6.59411609		0.00000000		-0.00015057		 0.00026716
Si		2.84604992		9.92968546		-0.65108515		0.00000000		 0.00050459		 0.00006353
Si		2.84604992		0.20983414		7.07048508		0.00000000		-0.00050459		-0.00006353
Si		0.00000000		0.56213812		4.86858391		0.00000000		 0.00004714		-0.00011287
Si		0.00000000		9.57738148		1.55081602		0.00000000		-0.00004714		 0.00011287
Si		0.00000000		3.53944616		4.39221492		0.00000000		-0.00043556		 0.00059876
Si		0.00000000		6.60007401		2.02718501		0.00000000		 0.00043556		-0.00059876
