# total energy = -38085.476814 eV

CRYSTAL
PRIMVEC
		5.69209984		0.00000000		0.00000000
		0.00000000		11.46000138		1.83360181
		0.00000000		1.32048178		8.25299833
PRIMECORD
   58 1
O		1.53572911		2.71953902		8.41975352		-0.00032462		-0.00050542		 0.00003111
O		4.15637074		10.06094073		1.66684720		 0.00032462		 0.00050542		-0.00003111
O		4.15637074		5.63267091		8.88585453		 0.00051948		 0.00040004		 0.00088184
O		1.53572911		7.14780998		1.20074619		-0.00051948		-0.00040004		-0.00088184
O		1.53572911		10.06094073		1.66684720		-0.00032462		 0.00050542		-0.00003111
O		4.15637074		2.71953902		8.41975352		 0.00032462		-0.00050542		 0.00003111
O		4.15637074		7.14780998		1.20074619		 0.00051948		-0.00040004		-0.00088184
O		1.53572911		5.63267091		8.88585453		-0.00051948		 0.00040004		 0.00088184
O		2.84604992		6.60742479		7.13351370		0.00000000		-0.00006834		-0.00054273
O		2.84604992		6.17305610		2.95308587		0.00000000		 0.00006834		 0.00054273
O		2.84604992		1.11808494		6.25521985		0.00000000		-0.00011951		 0.00029624
O		2.84604992		11.66239481		3.83138087		0.00000000		 0.00011951		-0.00029624
O		0.00000000		3.81151999		6.37415002		0.00000000		-0.00011953		 0.00092077
O		0.00000000		8.96895976		3.71245013		0.00000000		 0.00011953		-0.00092077
O		0.00000000		3.15378875		2.26333088		0.00000000		 0.00008943		 0.00054741
O		0.00000000		9.62669100		7.82326870		0.00000000		-0.00008943		-0.00054741
O		2.84604992		9.54402862		7.30663095		0.00000000		 0.00084852		 0.00005691
O		2.84604992		3.23645113		2.77996920		0.00000000		-0.00084852		-0.00005691
O		2.84604992		8.88127979		3.16445005		0.00000000		-0.00040384		 0.00014978
O		2.84604992		3.89919996		6.92214953		0.00000000		 0.00040384		-0.00014978
O		0.00000000		11.67718459		3.92381374		0.00000000		 0.00005586		 0.00014021
O		0.00000000		1.10329573		6.16278584		0.00000000		-0.00005586		-0.00014021
O		0.00000000		6.18784474		3.04551988		-0.00000000		 0.00029914		-0.00003029
O		0.00000000		6.59263501		7.04108083		-0.00000000		-0.00029914		 0.00003029
O		4.38177903		7.78929882		5.21005298		 0.00004695		-0.00024253		 0.00013322
O		1.31032081		4.99118093		4.87654659		-0.00004695		 0.00024253		-0.00013322
O		1.31032081		10.70243071		5.67615400		 0.00030191		 0.00018504		-0.00001163
O		4.38177903		2.07805018		4.41044615		-0.00030191		-0.00018504		 0.00001163
O		4.38177903		4.99118093		4.87654659		 0.00004695		 0.00024253		-0.00013322
O		1.31032081		7.78929882		5.21005298		-0.00004695		-0.00024253		 0.00013322
O		1.31032081		2.07805018		4.41044615		 0.00030191		-0.00018504		 0.00001163
O		4.38177903		10.70243071		5.67615400		-0.00030191		 0.00018504		-0.00001163
H		2.84604992		9.37606386		6.25685007		0.00000000		-0.00058357		-0.00043222
H		2.84604992		3.40441589		3.82975065		0.00000000		 0.00058357		 0.00043222
H		0.00000000		3.32175407		3.31311290		0.00000000		-0.00035046		-0.00093882
H		0.00000000		9.45872567		6.77348668		0.00000000		 0.00035046		 0.00093882
Mg		2.84604992		6.39023987		5.04330007		0.00000000		0.00000000		0.00000000
Mg		2.84604992		0.66023975		4.12649974		0.00000000		0.00000000		0.00000000
Mg		0.00000000		0.00000000		0.00000000		0.00000000		0.00000000		0.00000000
Mg		0.00000000		5.73000012		0.91679977		0.00000000		0.00000000		0.00000000
Mg		1.42302496		1.77866394		2.29501709		 0.00037588		-0.00000990		 0.00032040
Mg		4.26907488		11.00181580		7.79158306		-0.00037588		 0.00000990		-0.00032040
Mg		4.26907488		4.61157593		2.74828298		 0.00028653		-0.00004952		 0.00035431
Mg		1.42302496		8.16890382		7.33831659		-0.00028653		 0.00004952		-0.00035431
Mg		1.42302496		11.00181580		7.79158306		 0.00037588		 0.00000990		-0.00032040
Mg		4.26907488		1.77866394		2.29501709		-0.00037588		-0.00000990		 0.00032040
Mg		4.26907488		8.16890382		7.33831659		 0.00028653		 0.00004952		-0.00035431
Mg		1.42302496		4.61157593		2.74828298		-0.00028653		-0.00004952		 0.00035431
Mg		0.00000000		4.14599802		8.46463459		0.00000000		-0.00058876		 0.00059854
Mg		0.00000000		8.63448172		1.62196499		0.00000000		 0.00058876		-0.00059854
Si		2.84604992		7.26031376		2.09931473		0.00000000		-0.00050459		 0.00006352
Si		2.84604992		5.52016598		7.98728485		0.00000000		 0.00050459		-0.00006352
Si		2.84604992		10.23762180		2.57568372		0.00000000		-0.00015056		-0.00026715
Si		2.84604992		2.54285795		7.51091586		0.00000000		 0.00015056		 0.00026715
Si		0.00000000		2.19055397		5.30901469		0.00000000		 0.00043559		 0.00059875
Si		0.00000000		10.58992578		4.77758488		0.00000000		-0.00043559		-0.00059875
Si		0.00000000		5.16786200		5.78538368		0.00000000		-0.00004715		-0.00011290
Si		0.00000000		7.61261775		4.30121589		0.00000000		 0.00004715		 0.00011290
