# total energy = -38090.8190004 eV

CRYSTAL
PRIMVEC
		5.69209984		0.00000000		0.00000000
		0.00000000		11.46000138		1.37519994
		0.00000000		0.99036276		8.25299833
PRIMECORD
   58 1
O		1.53572911		2.39176286		8.36341596		 0.00056408		-0.00012182		-0.00005816
O		4.15637074		10.05859672		1.26478402		-0.00056408		 0.00012182		 0.00005816
O		4.15637074		5.30489361		8.71299172		-0.00047754		 0.00017707		-0.00006441
O		1.53572911		7.14546597		0.91520826		 0.00047754		-0.00017707		 0.00006441
O		1.53572911		10.05859672		1.26478402		 0.00056408		 0.00012182		 0.00005816
O		4.15637074		2.39176286		8.36341596		-0.00056408		-0.00012182		-0.00005816
O		4.15637074		7.14546597		0.91520826		-0.00047754		-0.00017707		 0.00006441
O		1.53572911		5.30489361		8.71299172		 0.00047754		 0.00017707		-0.00006441
O		2.84604992		6.35798559		6.90912657		0.00000000		 0.00050218		 0.00027217
O		2.84604992		6.09237400		2.71907284		0.00000000		-0.00050218		-0.00027217
O		2.84604992		0.86864574		6.25040604		0.00000000		-0.00086132		 0.00037793
O		2.84604992		11.58171384		3.37779394		0.00000000		 0.00086132		-0.00037793
O		0.00000000		3.57488972		6.25954983		0.00000000		 0.00008573		-0.00015478
O		0.00000000		8.87546986		3.36865015		0.00000000		-0.00008573		 0.00015478
O		0.00000000		3.08159186		2.14873069		-0.00000000		-0.00004944		-0.00017151
O		0.00000000		9.36876773		7.47946872		-0.00000000		 0.00004944		 0.00017151
O		2.84604992		9.30677165		6.96283097		0.00000000		-0.00021929		 0.00026686
O		2.84604992		3.14358793		2.66536901		0.00000000		 0.00021929		-0.00026686
O		2.84604992		8.80970960		2.82065006		0.00000000		-0.00013487		-0.00055337
O		2.84604992		3.64064998		6.80754991		0.00000000		 0.00013487		 0.00055337
O		0.00000000		11.59280547		3.47022681		0.00000000		 0.00036911		 0.00012230
O		0.00000000		0.85755412		6.15797260		0.00000000		-0.00036911		-0.00012230
O		0.00000000		6.10346562		2.81150684		0.00000000		 0.00001505		-0.00059722
O		0.00000000		6.34689396		6.81669370		0.00000000		-0.00001505		 0.00059722
O		4.38177903		7.62658274		4.92451563		-0.00022045		 0.00055258		-0.00045003
O		1.31032081		4.82377684		4.70368378		 0.00022045		-0.00055258		 0.00045003
O		1.31032081		10.53971349		5.27409195		 0.00003950		-0.00051954		-0.00037994
O		4.38177903		1.91064609		4.35410802		-0.00003950		 0.00051954		 0.00037994
O		4.38177903		4.82377684		4.70368378		-0.00022045		-0.00055258		 0.00045003
O		1.31032081		7.62658274		4.92451563		 0.00022045		 0.00055258		-0.00045003
O		1.31032081		1.91064609		4.35410802		 0.00003950		 0.00051954		 0.00037994
O		4.38177903		10.53971349		5.27409195		-0.00003950		-0.00051954		-0.00037994
H		2.84604992		9.18079751		5.91305008		0.00000000		-0.00012763		 0.00010895
H		2.84604992		3.26956207		3.71515103		0.00000000		 0.00012763		-0.00010895
H		0.00000000		3.20756600		3.19851271		-0.00000000		-0.00067910		-0.00043254
H		0.00000000		9.24279473		6.42968669		-0.00000000		 0.00067910		 0.00043254
Mg		2.84604992		6.22517979		4.81409970		0.00000000		0.00000000		0.00000000
Mg		2.84604992		0.49518024		4.12649974		0.00000000		0.00000000		0.00000000
Mg		0.00000000		0.00000000		0.00000000		0.00000000		0.00000000		0.00000000
Mg		0.00000000		5.73000012		0.68759997		0.00000000		0.00000000		0.00000000
Mg		1.42302496		1.69613419		2.23707493		 0.00023776		-0.00049069		-0.00008130
Mg		4.26907488		10.75422597		7.39112505		-0.00023776		 0.00049069		 0.00008130
Mg		4.26907488		4.52904561		2.57702478		-0.00055673		 0.00065804		-0.00019476
Mg		1.42302496		7.92131398		7.05117463		 0.00055673		-0.00065804		 0.00019476
Mg		1.42302496		10.75422597		7.39112505		 0.00023776		 0.00049069		 0.00008130
Mg		4.26907488		1.69613419		2.23707493		-0.00023776		-0.00049069		-0.00008130
Mg		4.26907488		7.92131398		7.05117463		-0.00055673		-0.00065804		 0.00019476
Mg		1.42302496		4.52904561		2.57702478		 0.00055673		 0.00065804		-0.00019476
Mg		0.00000000		3.82574796		8.35003497		0.00000000		 0.00041106		-0.00038786
Mg		0.00000000		8.62461162		1.27816500		0.00000000		-0.00041106		 0.00038786
Si		2.84604992		7.22182208		1.81506094		0.00000000		 0.00002670		-0.00027721
Si		2.84604992		5.22853808		7.81313904		0.00000000		-0.00002670		 0.00027721
Si		2.84604992		10.19912954		2.17233811		0.00000000		-0.00036061		 0.00045058
Si		2.84604992		2.25123004		7.45586187		0.00000000		 0.00036061		-0.00045058
Si		0.00000000		1.98700220		5.25396070		0.00000000		 0.00023301		 0.00012035
Si		0.00000000		10.46335796		4.37423870		0.00000000		-0.00023301		-0.00012035
Si		0.00000000		4.96430967		5.61123787		0.00000000		-0.00000384		 0.00046284
Si		0.00000000		7.48604992		4.01696210		-0.00000000		 0.00000384		-0.00046284
