
     Program PWSCF v.6.6 starts on  4Feb2024 at 13:33:50 

     This program is part of the open-source Quantum ESPRESSO suite
     for quantum simulation of materials; please cite
         "P. Giannozzi et al., J. Phys.:Condens. Matter 21 395502 (2009);
         "P. Giannozzi et al., J. Phys.:Condens. Matter 29 465901 (2017);
          URL http://www.quantum-espresso.org", 
     in publications or presentations arising from this work. More details at
     http://www.quantum-espresso.org/quote

     Parallel version (MPI & OpenMP), running on      16 processor cores
     Number of MPI processes:                16
     Threads/MPI process:                     1

     MPI processes distributed on     2 nodes
     R & G space division:  proc/nbgrp/npool/nimage =      16
     Fft bands division:     nmany     =       1
     Waiting for input...
     Reading input from standard input

     Current dimensions of program PWSCF are:
     Max number of different atomic species (ntypx) = 10
     Max number of k-points (npk) =  40000
     Max angular momentum in pseudopotentials (lmaxx) =  3

     IMPORTANT: XC functional enforced from input :
     Exchange-correlation= PBE
                           (   1   4   3   4   0   0   0)
     Any further DFT definition will be discarded
     Please, verify this is what you really want


     --------------------------------------------
     Parameters for DFT-D3 Dispersion Correction:
     --------------------------------------------
       Reference C6 values for interpolation: 

         atom   Coordination number   C6
         O          0.000            31.01
         O          0.993            25.63
         O          1.989            20.74
         Mg         0.000          1366.75
         Mg         0.963           902.54
         Mg         1.950           351.12

       Values used:

         atom   Coordination number  R0_AB[au]  C6      C8
         Mg        16.843            3.292    351.12  31436.69
         Mg        16.843            3.292    351.12  31436.69
         Mg        16.843            3.292    351.12  31436.69
         Mg        16.843            3.292    351.12  31436.69
         O          5.858            2.345     20.74    418.58
         O          5.858            2.345     20.74    418.58
         O          5.858            2.345     20.74    418.58
         O          5.858            2.345     20.74    418.58

         Molecular C6 ( Ry / a.u.^6 ) =      8251.69


     Subspace diagonalization in iterative solution of the eigenvalue problem:
     a serial algorithm will be used

     Found symmetry operation: I + (  0.0000 -0.5000 -0.5000)
     This is a supercell, fractional translations are disabled
     Message from routine setup:
     using ibrav=0 with symmetry is DISCOURAGED, use correct ibrav instead
 
     Parallelization info
     --------------------
     sticks:   dense  smooth     PW     G-vecs:    dense   smooth      PW
     Min         122     122     34                 4146     4146     608
     Max         123     123     36                 4151     4151     609
     Sum        1967    1967    549                66385    66385    9731
 


     bravais-lattice index     =            0
     lattice parameter (alat)  =       7.7587  a.u.
     unit-cell volume          =     491.3115 (a.u.)^3
     number of atoms/cell      =            8
     number of atomic types    =            2
     number of electrons       =        64.00
     number of Kohn-Sham states=           38
     kinetic-energy cutoff     =     100.0000  Ry
     charge density cutoff     =     400.0000  Ry
     convergence threshold     =      1.0E-06
     mixing beta               =       0.5000
     number of iterations used =            8  plain     mixing
     Exchange-correlation= PBE
                           (   1   4   3   4   0   0   0)
     nstep                     =          100


     celldm(1)=   7.758696  celldm(2)=   0.000000  celldm(3)=   0.000000
     celldm(4)=   0.000000  celldm(5)=   0.000000  celldm(6)=   0.000000

     crystal axes: (cart. coord. in units of alat)
               a(1) = (   1.000000   0.000000   0.000000 )  
               a(2) = (   0.000000   1.025641   0.000000 )  
               a(3) = (   0.000000   0.000000   1.025641 )  

     reciprocal axes: (cart. coord. in units 2 pi/alat)
               b(1) = (  1.000000  0.000000  0.000000 )  
               b(2) = (  0.000000  0.975000  0.000000 )  
               b(3) = (  0.000000  0.000000  0.975000 )  


     PseudoPot. # 1 for Mg read from file:
     ./Mg.upf
     MD5 check sum: 4c04d8c6e0476e83eaecaf72fa8acc4d
     Pseudo is Norm-conserving, Zval = 10.0
     Generated using ONCVPSP code by D. R. Hamann
     Using radial grid of 1510 points,  4 beta functions with: 
                l(1) =   0
                l(2) =   0
                l(3) =   1
                l(4) =   1

     PseudoPot. # 2 for O  read from file:
     ./O.upf
     MD5 check sum: 3e3f909f7470e8921608ab6b1f57bbae
     Pseudo is Norm-conserving + core correction, Zval =  6.0
     Generated using ONCVPSP code by D. R. Hamann
     Using radial grid of  936 points,  5 beta functions with: 
                l(1) =   0
                l(2) =   0
                l(3) =   1
                l(4) =   1
                l(5) =   2

     atomic species   valence    mass     pseudopotential
        Mg            10.00    24.30500     Mg( 1.00)
        O              6.00    15.99900     O ( 1.00)

     16 Sym. Ops., with inversion, found



   Cartesian axes

     site n.     atom                  positions (alat units)
         1           Mg  tau(   1) = (   0.0000000   0.0000000   0.0000000  )
         2           Mg  tau(   2) = (   0.0000000   0.5128205   0.5128205  )
         3           Mg  tau(   3) = (   0.4999999   0.0000000   0.5128205  )
         4           Mg  tau(   4) = (   0.4999999   0.5128205   0.0000000  )
         5           O   tau(   5) = (   0.4999999   0.5128205   0.5128205  )
         6           O   tau(   6) = (   0.4999999   0.0000000   0.0000000  )
         7           O   tau(   7) = (   0.0000000   0.5128205   0.0000000  )
         8           O   tau(   8) = (   0.0000000   0.0000000   0.5128205  )

     number of k points=    18  Gaussian smearing, width (Ry)=  0.0050
                       cart. coord. in units 2pi/alat
        k(    1) = (   0.0000000   0.0000000   0.0000000), wk =   0.0160000
        k(    2) = (   0.0000000   0.0000000   0.1950000), wk =   0.0640000
        k(    3) = (   0.0000000   0.0000000   0.3900000), wk =   0.0640000
        k(    4) = (   0.0000000   0.1950000   0.1950000), wk =   0.0640000
        k(    5) = (   0.0000000   0.1950000   0.3900000), wk =   0.1280000
        k(    6) = (   0.0000000   0.3900000   0.3900000), wk =   0.0640000
        k(    7) = (   0.2000000   0.0000000   0.0000000), wk =   0.0320000
        k(    8) = (   0.2000000   0.0000000   0.1950000), wk =   0.1280000
        k(    9) = (   0.2000000   0.0000000   0.3900000), wk =   0.1280000
        k(   10) = (   0.2000000   0.1950000   0.1950000), wk =   0.1280000
        k(   11) = (   0.2000000   0.1950000   0.3900000), wk =   0.2560000
        k(   12) = (   0.2000000   0.3900000   0.3900000), wk =   0.1280000
        k(   13) = (   0.4000000   0.0000000   0.0000000), wk =   0.0320000
        k(   14) = (   0.4000000   0.0000000   0.1950000), wk =   0.1280000
        k(   15) = (   0.4000000   0.0000000   0.3900000), wk =   0.1280000
        k(   16) = (   0.4000000   0.1950000   0.1950000), wk =   0.1280000
        k(   17) = (   0.4000000   0.1950000   0.3900000), wk =   0.2560000
        k(   18) = (   0.4000000   0.3900000   0.3900000), wk =   0.1280000

     Dense  grid:    66385 G-vectors     FFT dimensions: (  50,  54,  54)

     Estimated max dynamical RAM per process >      12.77 MB

     Estimated total dynamical RAM >     204.37 MB

     Initial potential from superposition of free atoms

     starting charge   63.99678, renormalised to   64.00000
     Starting wfcs are   36 randomized atomic wfcs +    2 random wfcs

     total cpu time spent up to now is        1.1 secs

     Self-consistent Calculation

     iteration #  1     ecut=   100.00 Ry     beta= 0.50
     Davidson diagonalization with overlap
     ethr =  1.00E-02,  avg # of iterations =  3.8

     total cpu time spent up to now is        6.5 secs

     total energy              =    -608.03413818 Ry
     estimated scf accuracy    <       1.56825238 Ry

     iteration #  2     ecut=   100.00 Ry     beta= 0.50
     Davidson diagonalization with overlap
     ethr =  2.45E-03,  avg # of iterations =  2.4

     total cpu time spent up to now is        8.2 secs

     total energy              =    -608.47856166 Ry
     estimated scf accuracy    <       0.22343696 Ry

     iteration #  3     ecut=   100.00 Ry     beta= 0.50
     Davidson diagonalization with overlap
     ethr =  3.49E-04,  avg # of iterations =  2.7

     total cpu time spent up to now is        9.5 secs

     total energy              =    -608.51069782 Ry
     estimated scf accuracy    <       0.01257643 Ry

     iteration #  4     ecut=   100.00 Ry     beta= 0.50
     Davidson diagonalization with overlap
     ethr =  1.97E-05,  avg # of iterations =  5.1

     total cpu time spent up to now is       11.0 secs

     total energy              =    -608.51130035 Ry
     estimated scf accuracy    <       0.00159856 Ry

     iteration #  5     ecut=   100.00 Ry     beta= 0.50
     Davidson diagonalization with overlap
     ethr =  2.50E-06,  avg # of iterations =  5.2

     total cpu time spent up to now is       12.7 secs

     total energy              =    -608.51167517 Ry
     estimated scf accuracy    <       0.00004986 Ry

     iteration #  6     ecut=   100.00 Ry     beta= 0.50
     Davidson diagonalization with overlap
     ethr =  7.79E-08,  avg # of iterations =  2.1

     total cpu time spent up to now is       14.0 secs

     total energy              =    -608.51168846 Ry
     estimated scf accuracy    <       0.00000213 Ry

     iteration #  7     ecut=   100.00 Ry     beta= 0.50
     Davidson diagonalization with overlap
     ethr =  3.34E-09,  avg # of iterations =  2.4

     total cpu time spent up to now is       15.5 secs

     total energy              =    -608.51168728 Ry
     estimated scf accuracy    <       0.00000286 Ry

     iteration #  8     ecut=   100.00 Ry     beta= 0.50
     Davidson diagonalization with overlap
     ethr =  3.34E-09,  avg # of iterations =  2.8

     total cpu time spent up to now is       17.0 secs

     End of self-consistent calculation

          k = 0.0000 0.0000 0.0000 (  8281 PWs)   bands (ev):

   -63.8849 -63.8722 -63.8722 -63.8711 -30.7246 -30.7246 -30.7099 -30.6790
   -30.6790 -30.6725 -30.6725 -30.6614 -30.6614 -30.6449 -30.6449 -30.6285
    -8.9431  -7.3505  -7.3504  -7.2801   4.2021   4.2021   4.3012   6.9341
     6.9341   6.9690   6.9690   7.1230   7.1230   8.3398   8.3956   8.3956
    13.3998  17.4607  17.7374  17.7374  18.6604  18.6950

          k = 0.0000 0.0000 0.1950 (  8309 PWs)   bands (ev):

   -63.8837 -63.8734 -63.8721 -63.8712 -30.7202 -30.7178 -30.7053 -30.6833
   -30.6791 -30.6738 -30.6698 -30.6660 -30.6582 -30.6533 -30.6475 -30.6316
    -8.7960  -7.5067  -7.3223  -7.2651   4.3944   4.4476   4.4900   6.5647
     6.6112   6.8075   6.9573   7.0797   7.2269   7.6787   8.1837   8.2526
    14.2218  18.0654  18.0669  18.3436  18.5400  19.2383

          k = 0.0000 0.0000 0.3900 (  8306 PWs)   bands (ev):

   -63.8805 -63.8766 -63.8718 -63.8714 -30.7087 -30.6992 -30.6946 -30.6931
   -30.6786 -30.6781 -30.6766 -30.6746 -30.6629 -30.6544 -30.6500 -30.6398
    -8.4054  -7.9125  -7.2695  -7.2474   4.9450   5.0302   5.1852   5.7521
     5.8199   6.3513   6.6286   6.6842   7.3864   7.5140   7.8051   7.9034
    15.8760  17.5307  19.0501  19.4040  19.6992  20.5301

          k = 0.0000 0.1950 0.1950 (  8306 PWs)   bands (ev):

   -63.8826 -63.8732 -63.8732 -63.8714 -30.7159 -30.7159 -30.7008 -30.6916
   -30.6738 -30.6700 -30.6700 -30.6643 -30.6627 -30.6627 -30.6462 -30.6349
    -8.6563  -7.4621  -7.4620  -7.2653   4.5492   4.5492   4.6753   5.9748
     6.7369   6.7369   7.0454   7.0766   7.1213   7.1213   8.0024   8.2659
    14.8202  18.2773  18.6257  18.9966  18.9966  19.8921

          k = 0.0000 0.1950 0.3900 (  8298 PWs)   bands (ev):

   -63.8796 -63.8761 -63.8726 -63.8719 -30.7105 -30.7030 -30.7020 -30.6890
   -30.6838 -30.6744 -30.6708 -30.6702 -30.6609 -30.6541 -30.6513 -30.6435
    -8.2883  -7.8308  -7.3653  -7.2893   4.8350   5.0709   5.2038   5.3059
     5.9727   5.9749   7.0009   7.0600   7.0861   7.5227   7.5655   7.9765
    16.2115  17.8010  19.0780  19.4512  19.6519  19.8484

          k = 0.0000 0.3900 0.3900 (  8304 PWs)   bands (ev):

   -63.8775 -63.8748 -63.8748 -63.8732 -30.7090 -30.7087 -30.7087 -30.6987
   -30.6781 -30.6648 -30.6648 -30.6622 -30.6591 -30.6591 -30.6530 -30.6516
    -7.9874  -7.6324  -7.6323  -7.4234   4.8714   4.8715   4.8952   5.3089
     5.6958   6.4012   6.4012   7.0018   7.4516   7.5446   7.5447   7.9102
    17.0968  18.3193  18.3193  18.7037  20.2299  20.2300

          k = 0.2000 0.0000 0.0000 (  8289 PWs)   bands (ev):

   -63.8836 -63.8724 -63.8722 -63.8722 -30.7195 -30.7195 -30.7033 -30.6774
   -30.6774 -30.6757 -30.6757 -30.6624 -30.6624 -30.6481 -30.6481 -30.6375
    -8.7852  -7.4371  -7.3225  -7.3224   4.4057   4.4057   4.5160   6.7234
     6.7234   6.7988   6.7989   7.0512   7.0512   7.6280   8.2280   8.2280
    14.2176  17.8093  18.3421  18.3421  18.5232  19.3000

          k = 0.2000 0.0000 0.1950 (  8316 PWs)   bands (ev):

   -63.8825 -63.8733 -63.8724 -63.8722 -30.7155 -30.7153 -30.7033 -30.6840
   -30.6798 -30.6746 -30.6726 -30.6609 -30.6603 -30.6581 -30.6509 -30.6347
    -8.6462  -7.4605  -7.4035  -7.3102   4.5464   4.5940   4.5975   6.0085
     6.6988   6.8450   6.9832   6.9839   6.9997   7.1781   8.0566   8.2506
    14.8111  18.3620  18.5127  18.6157  18.9773  19.0150

          k = 0.2000 0.0000 0.3900 (  8306 PWs)   bands (ev):

   -63.8796 -63.8761 -63.8723 -63.8722 -30.7043 -30.7027 -30.7012 -30.6943
   -30.6908 -30.6826 -30.6672 -30.6661 -30.6609 -30.6582 -30.6480 -30.6383
    -8.2801  -7.8259  -7.3375  -7.3014   4.8421   5.0398   5.1319   5.3014
     5.9162   5.9200   6.9980   7.1483   7.1818   7.4329   7.6412   7.9363
    16.2074  17.8135  19.3019  19.4154  19.5604  19.7446

          k = 0.2000 0.1950 0.1950 (  8311 PWs)   bands (ev):

   -63.8815 -63.8732 -63.8732 -63.8724 -30.7153 -30.7153 -30.7072 -30.6774
   -30.6769 -30.6769 -30.6737 -30.6711 -30.6574 -30.6574 -30.6488 -30.6355
    -8.5152  -7.4311  -7.4310  -7.3846   4.5683   4.5683   4.5942   6.3682
     6.3682   6.3683   6.3912   7.1749   7.2678   7.2678   8.1326   8.1342
    15.2064  18.3130  18.4822  18.4822  19.7018  19.7982

          k = 0.2000 0.1950 0.3900 (  8301 PWs)   bands (ev):

   -63.8789 -63.8757 -63.8729 -63.8727 -30.7148 -30.7126 -30.7091 -30.6937
   -30.6787 -30.6776 -30.6647 -30.6639 -30.6590 -30.6536 -30.6494 -30.6402
    -8.1735  -7.7573  -7.3771  -7.3592   4.5644   4.5673   4.7925   5.4580
     6.0786   6.1114   7.1030   7.2094   7.2664   7.5140   7.8026   7.8452
    16.2850  17.6520  18.6630  18.7502  19.9655  20.5614

          k = 0.2000 0.3900 0.3900 (  8294 PWs)   bands (ev):

   -63.8770 -63.8748 -63.8748 -63.8736 -30.7206 -30.7185 -30.7185 -30.7100
   -30.6641 -30.6611 -30.6610 -30.6610 -30.6540 -30.6540 -30.6526 -30.6460
    -7.9040  -7.5970  -7.5969  -7.4430   4.2783   4.3877   4.3877   4.7480
     6.4889   6.8743   6.8744   7.4571   7.4929   7.5724   7.5725   7.8640
    16.7347  17.6609  17.6609  17.9882  20.7213  20.9584

          k = 0.4000 0.0000 0.0000 (  8316 PWs)   bands (ev):

   -63.8801 -63.8758 -63.8722 -63.8722 -30.7065 -30.7065 -30.6904 -30.6904
   -30.6849 -30.6671 -30.6671 -30.6641 -30.6641 -30.6598 -30.6566 -30.6566
    -8.3692  -7.8526  -7.2766  -7.2765   4.9900   4.9900   5.1938   5.8506
     5.8506   6.3175   6.5364   6.5365   7.3766   7.3766   7.8226   7.8226
    15.8707  17.5290  18.8508  19.6335  19.6335  20.6063

          k = 0.4000 0.0000 0.1950 (  8286 PWs)   bands (ev):

   -63.8793 -63.8755 -63.8729 -63.8725 -30.7086 -30.7027 -30.6976 -30.6944
   -30.6871 -30.6779 -30.6708 -30.6598 -30.6585 -30.6574 -30.6572 -30.6443
    -8.2549  -7.7778  -7.3667  -7.3085   4.8222   5.0376   5.1656   5.2973
     5.8983   6.0031   6.9165   7.0719   7.0746   7.4549   7.5860   7.9539
    16.1988  17.7979  19.2765  19.7476  19.7596  20.7195

          k = 0.4000 0.0000 0.3900 (  8298 PWs)   bands (ev):

   -63.8773 -63.8749 -63.8745 -63.8734 -30.7075 -30.7054 -30.7043 -30.6966
   -30.6928 -30.6806 -30.6786 -30.6682 -30.6503 -30.6499 -30.6462 -30.6404
    -7.9626  -7.6207  -7.5989  -7.4177   4.7916   4.7958   4.8257   5.2086
     5.6635   6.3778   6.4304   7.0276   7.5146   7.5350   7.5781   7.9288
    17.0970  18.3552  18.3719  18.8311  19.9678  20.0816

          k = 0.4000 0.1950 0.1950 (  8301 PWs)   bands (ev):

   -63.8787 -63.8752 -63.8732 -63.8731 -30.7144 -30.7144 -30.7051 -30.6917
   -30.6830 -30.6830 -30.6642 -30.6579 -30.6557 -30.6535 -30.6535 -30.6425
    -8.1504  -7.7154  -7.3803  -7.3802   4.5593   4.5593   4.7595   5.4168
     6.1006   6.1007   7.1268   7.2115   7.2115   7.4456   7.8103   7.8289
    16.2726  17.6187  18.7695  18.7695  19.8012  20.5913

          k = 0.4000 0.1950 0.3900 (  8299 PWs)   bands (ev):

   -63.8770 -63.8748 -63.8746 -63.8738 -30.7206 -30.7184 -30.7175 -30.7097
   -30.6756 -30.6694 -30.6681 -30.6598 -30.6500 -30.6485 -30.6453 -30.6404
    -7.8876  -7.5905  -7.5727  -7.4430   4.2534   4.3413   4.3546   4.7008
     6.4337   6.8654   6.8757   7.4451   7.5521   7.5698   7.5808   7.8876
    16.7280  17.6469  17.6802  18.0374  20.5850  20.6576

          k = 0.4000 0.3900 0.3900 (  8274 PWs)   bands (ev):

   -63.8760 -63.8748 -63.8748 -63.8746 -30.7303 -30.7303 -30.7302 -30.7258
   -30.6604 -30.6604 -30.6584 -30.6552 -30.6472 -30.6443 -30.6443 -30.6407
    -7.7109  -7.5388  -7.5387  -7.5318   3.8512   3.8582   3.8582   4.0454
     7.3540   7.3541   7.4043   7.6036   7.6529   7.6529   7.7454   7.7918
    16.4406  16.9291  16.9444  16.9444  21.1289  21.1535

     the Fermi energy is    10.6258 ev

!    total energy              =    -608.51168784 Ry
     estimated scf accuracy    <       0.00000002 Ry
     smearing contrib. (-TS)   =      -0.00000000 Ry
     internal energy E=F+TS    =    -608.51168784 Ry

     The total energy is F=E-TS. E is the sum of the following terms:
     one-electron contribution =    -292.47237329 Ry
     hartree contribution      =     164.47217177 Ry
     xc contribution           =     -98.09964062 Ry
     ewald contribution        =    -382.30072580 Ry
     DFT-D3 Dispersion         =      -0.11111990 Ry

     convergence has been achieved in   8 iterations

     Forces acting on atoms (cartesian axes, Ry/au):

     atom    1 type  1   force =     0.00000000    0.00000000    0.00000000
     atom    2 type  1   force =     0.00000000    0.00000000    0.00000000
     atom    3 type  1   force =     0.00000000    0.00000000    0.00000000
     atom    4 type  1   force =     0.00000000    0.00000000    0.00000000
     atom    5 type  2   force =     0.00000000    0.00000000    0.00000000
     atom    6 type  2   force =     0.00000000    0.00000000    0.00000000
     atom    7 type  2   force =     0.00000000    0.00000000    0.00000000
     atom    8 type  2   force =     0.00000000    0.00000000    0.00000000

     Total force =     0.000000     Total SCF correction =     0.000000

     BFGS Geometry Optimization

     bfgs converged in   1 scf cycles and   0 bfgs steps
     (criteria: energy <  1.0E-04 Ry, force <  1.0E-03 Ry/Bohr)

     End of BFGS Geometry Optimization

     Final energy   =    -608.5116878391 Ry
Begin final coordinates

ATOMIC_POSITIONS (angstrom)
Mg            0.0000000000        0.0000000000        0.0000000000
Mg            0.0000000000        2.1055000000        2.1055000000
Mg            2.0528620000        0.0000000000        2.1055000000
Mg            2.0528620000        2.1055000000        0.0000000000
O             2.0528620000        2.1055000000        2.1055000000
O             2.0528620000        0.0000000000        0.0000000000
O             0.0000000000        2.1055000000        0.0000000000
O             0.0000000000        0.0000000000        2.1055000000
End final coordinates


 
     init_run     :      0.73s CPU      0.78s WALL (       1 calls)
     electrons    :     15.44s CPU     15.90s WALL (       1 calls)
     forces       :      4.99s CPU      5.04s WALL (       1 calls)

     Called by init_run:
     wfcinit      :      0.50s CPU      0.54s WALL (       1 calls)
     potinit      :      0.06s CPU      0.06s WALL (       1 calls)
     hinit0       :      0.14s CPU      0.14s WALL (       1 calls)

     Called by electrons:
     c_bands      :      9.59s CPU      9.90s WALL (       8 calls)
     sum_band     :      1.68s CPU      1.76s WALL (       8 calls)
     v_of_rho     :      0.08s CPU      0.09s WALL (       9 calls)
     mix_rho      :      0.01s CPU      0.01s WALL (       8 calls)

     Called by c_bands:
     init_us_2    :      0.12s CPU      0.14s WALL (     324 calls)
     cegterg      :      9.25s CPU      9.54s WALL (     144 calls)

     Called by *egterg:
     cdiaghg      :      1.16s CPU      1.19s WALL (     621 calls)
     h_psi        :      7.78s CPU      8.07s WALL (     639 calls)
     g_psi        :      0.02s CPU      0.02s WALL (     477 calls)

     Called by h_psi:
     h_psi:calbec :      0.32s CPU      0.33s WALL (     639 calls)
     vloc_psi     :      7.23s CPU      7.50s WALL (     639 calls)
     add_vuspsi   :      0.20s CPU      0.21s WALL (     639 calls)

     General routines
     calbec       :      0.40s CPU      0.41s WALL (     711 calls)
     fft          :      0.11s CPU      0.11s WALL (     100 calls)
     ffts         :      0.00s CPU      0.00s WALL (       8 calls)
     fftw         :      8.31s CPU      8.63s WALL (   33776 calls)
 
     Parallel routines
     fft_scatt_xy :      1.03s CPU      1.07s WALL (   33884 calls)
     fft_scatt_yz :      4.65s CPU      4.83s WALL (   33884 calls)
 
     PWSCF        :     21.47s CPU     22.06s WALL

 
   This run was terminated on:  13:34:12   4Feb2024            

=------------------------------------------------------------------------------=
   JOB DONE.
=------------------------------------------------------------------------------=
