# total energy = -12337.1114912 eV

CRYSTAL
PRIMVEC
		2.46200010		0.00000000		0.00000000
		0.00000000		8.05300044		0.64423895
		0.00000000		0.48864055		6.10800066
PRIMECORD
   20 1
O		0.00000000		0.71002901		1.57402905		0.00000000		-0.00026917		 0.00050085
O		0.00000000		7.83161123		5.17821032		0.00000000		 0.00026917		-0.00050085
O		1.23100005		4.73652923		1.89614901		0.00000000		-0.00026914		 0.00050111
O		1.23100005		3.80511126		4.85609011		0.00000000		 0.00026914		-0.00050111
O		0.00000000		3.13872908		2.92748701		0.00000000		 0.00005169		-0.00033945
O		0.00000000		5.40291116		3.82475310		0.00000000		-0.00005169		 0.00033945
O		0.00000000		5.58957115		6.15800930		0.00000000		 0.00048207		 0.00023123
O		0.00000000		2.95206910		0.59423105		0.00000000		-0.00048207		-0.00023123
O		1.23100005		7.16523028		3.24960722		0.00000000		 0.00005174		-0.00033950
O		1.23100005		1.37641095		3.50263313		0.00000000		-0.00005174		 0.00033950
O		1.23100005		1.56307118		5.83588933		0.00000000		 0.00048179		 0.00023143
O		1.23100005		6.97856931		0.91635102		0.00000000		-0.00048179		-0.00023143
Si		0.00000000		0.00000000		0.00000000		0.00000000		0.00000000		0.00000000
Si		0.00000000		0.24432003		3.05400009		0.00000000		0.00000000		0.00000000
Si		1.23100005		4.02650022		0.32211997		0.00000000		0.00000000		0.00000000
Si		1.23100005		4.27082024		3.37612005		0.00000000		0.00000000		0.00000000
Mg		0.00000000		2.40388902		4.74399327		0.00000000		-0.00035516		-0.00073563
Mg		0.00000000		6.13775123		2.00824708		0.00000000		 0.00035516		 0.00073563
Mg		1.23100005		6.43038924		5.06611324		0.00000000		-0.00035539		-0.00073553
Mg		1.23100005		2.11125101		1.68612711		0.00000000		 0.00035539		 0.00073553
