# total energy = -18388.4819492 eV	

CRYSTAL	
PRIMVEC	
		11.10980144		1.33317349		0.00000000	
		0.76672721		6.38939717		0.00000000	
		0.00000000		0.00000000		4.82810326	
PRIMCOORD
   28 1	
Mg		0.00000000		0.00000000		0.00000000		0.00000000		0.00000000		0.00000000	
Mg		5.55489960		0.66658786		2.41404939		0.00000000		-0.00000000		0.00000000	
Mg		0.38336361		3.19469970		0.00000000		0.00000000		0.00000000		0.00000000	
Mg		5.93826433		3.86128757		2.41404939		0.00000000		0.00000000		0.00000000	
Ca		3.26731847		1.96642558		4.71922714		-0.00049586		 0.00013935		 0.00035444	
Ca		8.60921019		5.75614955		0.10887388		 0.00049586		-0.00013935		-0.00035444	
Ca		3.05430835		5.08956169		2.30517663		 0.00049586		-0.00013935		 0.00035444	
Ca		8.82221919		2.63301344		2.52292439		-0.00049586		 0.00013935		-0.00035444	
Si		1.09779667		1.70608386		1.98425270		 0.00019703		-0.00022653		-0.00048898	
Si		10.77873087		6.01649127		2.84384832		-0.00019703		 0.00022653		 0.00048898	
Si		5.22383126		5.34990341		4.39830321		-0.00019703		 0.00022653		-0.00048898	
Si		6.65269739		2.37267172		0.42979781		 0.00019703		-0.00022653		 0.00048898	
O		1.05457945		1.70089752		3.60031364		-0.00009414		-0.00000152		-0.00039284	
O		10.82194809		6.02167761		1.22778626		 0.00009414		 0.00000152		 0.00039284	
O		5.26704737		5.35508974		1.18626425		 0.00009414		 0.00000152		-0.00039284	
O		6.60948017		2.36748539		3.64183565		-0.00009414		-0.00000152		 0.00039284	
O		5.18009373		2.19595924		1.18771329		-0.00067269		-0.00016320		-0.00082519	
O		6.69643493		5.52661701		3.64038773		 0.00067269		 0.00016320		 0.00082519	
O		1.14153532		4.86002915		3.60176268		 0.00067269		 0.00016320		-0.00082519	
O		10.73499333		2.86254710		1.22633722		-0.00067269		-0.00016320		 0.00082519	
O		1.67406845		0.48867922		1.31952005		-0.00079653		 0.00014526		-0.00027844	
O		10.20246021		7.23389703		3.50857984		 0.00079653		-0.00014526		 0.00027844	
O		4.64755948		6.56730917		3.73356944		 0.00079653		-0.00014526		-0.00027844	
O		7.22896917		1.15526708		1.09453045		-0.00079653		 0.00014526		 0.00027844	
O		9.88917423		4.62318763		3.50857984		-0.00009894		-0.00056086		-0.00028778	
O		1.98735331		3.09938750		1.31952005		 0.00009894		 0.00056086		 0.00028778	
O		7.54225403		3.76597537		1.09453045		 0.00009894		 0.00056086		-0.00028778	
O		4.33427462		3.95659976		3.73356944		-0.00009894		-0.00056086		 0.00028778	
