# total energy = -18389.8497097 eV	

CRYSTAL	
PRIMVEC	
		11.10979641		-0.88878148		0.00000000	
		-0.51115663		6.38939653		0.00000000	
		0.00000000		0.00000000		4.82809685	
PRIMCOORD
   28 1	
Mg		0.00000000		0.00000000		0.00000000		0.00000000		0.00000000		0.00000000	
Mg		5.55489932		-0.44439186		2.41404954		0.00000000		0.00000000		0.00000000	
Mg		-0.25557608		3.19469938		0.00000000		0.00000000		0.00000000		0.00000000	
Mg		5.29932324		2.75030753		2.41404954		-0.00000000		-0.00000000		0.00000000	
Ca		2.94784895		1.35129893		4.71922628		 0.00003168		 0.00034224		-0.00076798	
Ca		7.65079975		4.14931723		0.10887392		-0.00003168		-0.00034224		 0.00076798	
Ca		2.09589932		4.59370909		2.30517674		-0.00003168		-0.00034224		-0.00076798	
Ca		8.50274827		0.90690708		2.52292346		 0.00003168		 0.00034224		 0.00076798	
Si		0.77832716		1.52486125		1.98425245		-0.00031697		-0.00014834		 0.00023452	
Si		9.82032043		3.97575491		2.84384775		 0.00031697		 0.00014834		-0.00023452	
Si		4.26542111		4.42014677		4.39830310		 0.00031697		 0.00014834		 0.00023452	
Si		6.33322760		1.08046940		0.42979821		-0.00031697		-0.00014834		-0.00023452	
O		0.73511017		1.52831741		3.60031342		 0.00052233		-0.00003823		 0.00025319	
O		9.86353742		3.97229764		1.22778567		-0.00052233		 0.00003823		-0.00025319	
O		4.30863810		4.41668950		1.18626387		-0.00052233		 0.00003823		 0.00025319	
O		6.29000949		1.08392555		3.64183632		 0.00052233		-0.00003823		-0.00025319	
O		4.86062328		1.19827739		1.18771276		 0.00018562		-0.00023688		 0.00014280	
O		5.73802431		4.30233878		3.64038744		-0.00018562		 0.00023688		-0.00014280	
O		0.18312498		4.74673063		3.60176230		-0.00018562		 0.00023688		 0.00014280	
O		10.41552372		0.75388442		1.22633678		 0.00018562		-0.00023688		-0.00014280	
O		1.61566865		0.16087341		1.31952035		-0.00059891		 0.00026449		-0.00001105	
O		8.98297893		5.33974276		3.50857984		 0.00059891		-0.00026449		 0.00001105	
O		3.42807850		5.78413462		3.73356990		 0.00059891		-0.00026449		-0.00001105	
O		7.17057020		-0.28351845		1.09453030		-0.00059891		 0.00026449		 0.00001105	
O		9.19183506		2.72903339		3.50857984		-0.00032244		-0.00031842		-0.00028972	
O		1.40681253		2.77158166		1.31952035		 0.00032244		 0.00031842		 0.00028972	
O		6.96171296		2.32718981		1.09453030		 0.00032244		 0.00031842		-0.00028972	
O		3.63693462		3.17342636		3.73356990		-0.00032244		-0.00031842		 0.00028972	
