# total energy = -10316.9505482 eV	

CRYSTAL	
PRIMVEC	
		4.98000023		-0.19919981		0.00000000	
		-0.35400230		8.84999780		0.00000000	
		0.00000000		0.00000000		2.75000202	
PRIMCOORD
   14 1	
Si		0.00000000		0.00000000		0.00000000		0.00000000		0.00000000		0.00000000	
Si		2.31299996		4.32539999		0.00000000		0.00000000		0.00000000		0.00000000	
Mg		0.29001495		2.92985102		1.37500001		 0.00037040		 0.00048428		0.00000000	
Mg		4.33598497		5.72094996		1.37500001		-0.00037040		-0.00048428		0.00000000	
Mg		1.78729099		7.28788014		1.37500001		-0.00026257		-0.00013652		0.00000000	
Mg		2.83870893		1.36292083		1.37500001		 0.00026257		 0.00013652		0.00000000	
O		1.06181304		0.35337283		1.37500001		-0.00003127		-0.00012933		-0.00000000	
O		3.56418688		8.29742715		1.37500001		 0.00003127		 0.00012933		-0.00000000	
O		1.21946886		4.76498724		1.37500001		 0.00001244		-0.00017673		-0.00000000	
O		3.40653106		3.88581324		1.37500001		-0.00001244		 0.00017673		-0.00000000	
O		1.84536983		2.65380916		0.00000000		-0.00037813		 0.00008948		-0.00000000	
O		2.78063009		5.99699181		0.00000000		 0.00037813		-0.00008948		-0.00000000	
O		0.24907004		7.13558110		0.00000000		 0.00039062		-0.00050177		0.00000000	
O		4.37692988		1.51521888		0.00000000		-0.00039062		 0.00050177		0.00000000	
