# total energy = -10314.7599046 eV	

CRYSTAL	
PRIMVEC	
		4.98000074		0.59759889		0.00000000	
		1.06200010		8.85000087		0.00000000	
		0.00000000		0.00000000		2.74999814	
PRIMCOORD
   14 1	
Si		0.00000000		0.00000000		0.00000000		0.00000000		0.00000000		0.00000000	
Si		3.02099992		4.72379988		0.00000000		0.00000000		0.00000000		0.00000000	
Mg		0.76140202		2.99510773		1.37500008		-0.00020516		-0.00008066		0.00000000	
Mg		5.28059782		6.45249202		1.37500008		 0.00020516		 0.00008066		0.00000000	
Mg		2.96667809		7.62102167		1.37500008		-0.00006189		-0.00008578		-0.00000000	
Mg		3.07532176		1.82657909		1.37500008		 0.00006189		 0.00008578		-0.00000000	
O		1.12524994		0.52580075		1.37500008		-0.00016591		 0.00038148		-0.00000000	
O		4.91674991		8.92180001		1.37500008		 0.00016591		-0.00038148		-0.00000000	
O		1.99090587		4.99095911		1.37500008		 0.00008103		 0.00011034		0.00000000	
O		4.05109498		4.45664115		1.37500008		-0.00008103		-0.00011034		0.00000000	
O		2.28248918		2.96655319		0.00000000		 0.00049332		 0.00000376		-0.00000000	
O		3.75951016		6.48104806		0.00000000		-0.00049332		-0.00000376		-0.00000000	
O		1.39418874		7.22123707		0.00000000		 0.00001725		-0.00004123		0.00000000	
O		4.64781110		2.22636319		0.00000000		-0.00001725		 0.00004123		0.00000000	
