# total energy = -24715.0371157 eV

CRYSTAL
PRIMVEC
		9.68100001		0.00000000		0.00000000
		0.00000000		8.73899998		0.00000000
		1.61441324		0.00000000		5.31603072
PRIMECORD
   40 1
Si		2.35750744		3.58299038		1.06852295		 0.00029684		-0.00062687		-0.00005134
Si		8.93790581		5.15600960		4.24750971		-0.00029684		 0.00062687		 0.00005134
Si		3.29020015		7.95249037		1.58949435		-0.00029684		-0.00062687		 0.00005134
Si		8.00521310		0.78650961		3.72653928		 0.00029684		 0.00062687		-0.00005134
Si		8.13069919		3.58299038		1.58949435		 0.00006020		-0.00006551		-0.00018646
Si		3.16471309		5.15600960		3.72653928		-0.00006020		 0.00006551		 0.00018646
Si		7.19800744		7.95249037		1.06852295		-0.00006020		-0.00006551		 0.00018646
Si		4.09740580		0.78650961		4.24750971		 0.00006020		 0.00006551		-0.00018646
O		4.03384133		3.67037980		0.53160307		 0.00006709		 0.00004756		-0.00013448
O		7.26157192		5.06862115		4.78442862		-0.00006709		-0.00004756		 0.00013448
O		1.61386530		8.03987979		2.12641326		-0.00006709		 0.00004756		 0.00013448
O		9.68154698		0.69912019		3.18962037		 0.00006709		-0.00004756		-0.00013448
O		8.60171275		2.18475000		0.84524908		-0.00010420		 0.00017840		 0.00011932
O		2.69369856		6.55424999		4.47078358		 0.00010420		-0.00017840		-0.00011932
O		6.72699291		6.55424999		1.81276725		 0.00010420		 0.00017840		-0.00011932
O		4.56842034		2.18475000		3.50326541		-0.00010420		-0.00017840		 0.00011932
O		2.98584210		4.28210960		5.05023112		 0.00046566		 0.00009156		-0.00000651
O		8.30957115		4.45689038		0.26580154		-0.00046566		-0.00009156		 0.00000651
O		4.27627680		8.65160959		2.92381787		-0.00046566		 0.00009156		 0.00000651
O		7.01913548		0.08739039		2.39221479		 0.00046566		-0.00009156		-0.00000651
O		9.11677680		4.28210960		2.92381787		-0.00020704		 0.00016276		 0.00045318
O		2.17863644		4.45689038		2.39221479		 0.00020704		-0.00016276		-0.00045318
O		7.82634210		8.65160959		5.05023112		 0.00020704		 0.00016276		-0.00045318
O		3.46907115		0.08739039		0.26580154		-0.00020704		-0.00016276		 0.00045318
O		1.88649291		2.18475000		1.81276725		-0.00034681		-0.00009352		-0.00071641
O		9.40892034		6.55424999		3.50326638		 0.00034681		 0.00009352		 0.00071641
O		3.76121275		6.55424999		0.84524908		 0.00034681		-0.00009352		 0.00071641
O		7.53419856		2.18475000		4.47078261		-0.00034681		 0.00009352		-0.00071641
O		6.45436530		3.67037980		2.12641326		 0.00032114		 0.00000653		 0.00006686
O		4.84104795		5.06862115		3.18962037		-0.00032114		-0.00000653		-0.00006686
O		8.87434133		8.03987979		0.53160307		-0.00032114		 0.00000653		-0.00006686
O		2.42107095		0.69912019		4.78442862		 0.00032114		-0.00000653		 0.00006686
Mg		0.40360283		0.79524865		1.32900768		-0.00000203		 0.00077447		-0.00009508
Mg		1.21081042		7.94375133		3.98702498		 0.00000203		-0.00077447		 0.00009508
Mg		5.24410283		5.16474864		1.32900768		 0.00000203		 0.00077447		 0.00009508
Mg		6.05131042		3.57425134		3.98702498		-0.00000203		-0.00077447		-0.00009508
Mg		0.32288265		6.02990960		1.06320711		 0.00006603		 0.00013480		 0.00041387
Mg		1.29152963		2.70909038		4.25282555		-0.00006603		-0.00013480		-0.00041387
Mg		5.32482398		1.66040961		1.59481019		-0.00006603		 0.00013480		-0.00041387
Mg		5.97058927		7.07859037		3.72122344		 0.00006603		-0.00013480		 0.00041387
