# total energy = -24715.6892115 eV

CRYSTAL
PRIMVEC
		9.68100001		0.00000000		0.00000000
		0.00000000		8.73899998		0.00000000
		1.61441324		0.00000000		4.82151556
PRIMECORD
   40 1
Si		2.35750744		3.58299038		0.96912522		 0.00021944		 0.00005644		 0.00017944
Si		8.93790581		5.15600960		3.85239325		-0.00021944		-0.00005644		-0.00017944
Si		3.29020015		7.95249037		1.44163353		-0.00021944		 0.00005644		-0.00017944
Si		8.00521310		0.78650961		3.37988397		 0.00021944		-0.00005644		 0.00017944
Si		8.13069919		3.58299038		1.44163353		-0.00013074		-0.00007030		-0.00026558
Si		3.16471309		5.15600960		3.37988397		 0.00013074		 0.00007030		 0.00026558
Si		7.19800744		7.95249037		0.96912522		 0.00013074		-0.00007030		 0.00026558
Si		4.09740580		0.78650961		3.85239325		-0.00013074		 0.00007030		-0.00026558
O		4.03384133		3.67037980		0.48215156		 0.00000522		 0.00067595		-0.00035295
O		7.26157192		5.06862115		4.33936594		-0.00000522		-0.00067595		 0.00035295
O		1.61386530		8.03987979		1.92860719		-0.00000522		 0.00067595		 0.00035295
O		9.68154698		0.69912019		2.89291127		 0.00000522		-0.00067595		-0.00035295
O		8.60171275		2.18475000		0.76662096		-0.00010825		-0.00019162		-0.00011255
O		2.69369856		6.55424999		4.05489653		 0.00010825		 0.00019162		 0.00011255
O		6.72699291		6.55424999		1.64413778		 0.00010825		-0.00019162		 0.00011255
O		4.56842034		2.18475000		3.17737971		-0.00010825		 0.00019162		-0.00011255
O		2.98584210		4.28210960		4.58044220		 0.00039673		-0.00025304		-0.00039166
O		8.30957115		4.45689038		0.24107626		-0.00039673		 0.00025304		 0.00039166
O		4.27627680		8.65160959		2.65183501		-0.00039673		-0.00025304		 0.00039166
O		7.01913548		0.08739039		2.16968345		 0.00039673		 0.00025304		-0.00039166
O		9.11677680		4.28210960		2.65183501		-0.00028885		-0.00011758		 0.00019925
O		2.17863644		4.45689038		2.16968345		 0.00028885		 0.00011758		-0.00019925
O		7.82634210		8.65160959		4.58044220		 0.00028885		-0.00011758		-0.00019925
O		3.46907115		0.08739039		0.24107626		-0.00028885		 0.00011758		 0.00019925
O		1.88649291		2.18475000		1.64413778		 0.00033209		 0.00022724		 0.00040027
O		9.40892034		6.55424999		3.17738068		-0.00033209		-0.00022724		-0.00040027
O		3.76121275		6.55424999		0.76662096		-0.00033209		 0.00022724		-0.00040027
O		7.53419856		2.18475000		4.05489653		 0.00033209		-0.00022724		 0.00040027
O		6.45436530		3.67037980		1.92860719		-0.00001062		 0.00012551		-0.00027913
O		4.84104795		5.06862115		2.89291127		 0.00001062		-0.00012551		 0.00027913
O		8.87434133		8.03987979		0.48215156		 0.00001062		 0.00012551		 0.00027913
O		2.42107095		0.69912019		4.33936594		-0.00001062		-0.00012551		-0.00027913
Mg		0.40360283		0.79524865		1.20538034		 0.00007408		-0.00006692		 0.00009651
Mg		1.21081042		7.94375133		3.61613909		-0.00007408		 0.00006692		-0.00009651
Mg		5.24410283		5.16474864		1.20538034		-0.00007408		-0.00006692		-0.00009651
Mg		6.05131042		3.57425134		3.61613909		 0.00007408		 0.00006692		 0.00009651
Mg		0.32288265		6.02990960		0.96430408		-0.00006885		-0.00050179		 0.00012947
Mg		1.29152963		2.70909038		3.85721535		 0.00006885		 0.00050179		-0.00012947
Mg		5.32482398		1.66040961		1.44645467		 0.00006885		-0.00050179		-0.00012947
Mg		5.97058927		7.07859037		3.37506283		-0.00006885		 0.00050179		 0.00012947
