# total energy = -24714.8130082 eV

CRYSTAL
PRIMVEC
		9.68100001		0.00000000		0.00000000
		0.00000000		8.73899998		0.00000000
		1.61441324		0.00000000		4.69788919
PRIMECORD
   40 1
Si		2.35750744		3.58299038		0.94427603		 0.00011182		-0.00009289		-0.00017458
Si		8.93790581		5.15600960		3.75361413		-0.00011182		 0.00009289		 0.00017458
Si		3.29020015		7.95249037		1.40466857		-0.00011182		-0.00009289		 0.00017458
Si		8.00521310		0.78650961		3.29321966		 0.00011182		 0.00009289		-0.00017458
Si		8.13069919		3.58299038		1.40466857		-0.00019390		-0.00002541		 0.00008776
Si		3.16471309		5.15600960		3.29321966		 0.00019390		 0.00002541		-0.00008776
Si		7.19800744		7.95249037		0.94427603		 0.00019390		-0.00002541		-0.00008776
Si		4.09740580		0.78650961		3.75361413		-0.00019390		 0.00002541		 0.00008776
O		4.03384133		3.67037980		0.46978892		-0.00029874		 0.00090692		 0.00003150
O		7.26157192		5.06862115		4.22810027		 0.00029874		-0.00090692		-0.00003150
O		1.61386530		8.03987979		1.87915568		 0.00029874		 0.00090692		-0.00003150
O		9.68154698		0.69912019		2.81873448		-0.00029874		-0.00090692		 0.00003150
O		8.60171275		2.18475000		0.74696369		-0.00013843		-0.00011490		-0.00046238
O		2.69369856		6.55424999		3.95092453		 0.00013843		 0.00011490		 0.00046238
O		6.72699291		6.55424999		1.60197993		 0.00013843		-0.00011490		 0.00046238
O		4.56842034		2.18475000		3.09590926		-0.00013843		 0.00011490		-0.00046238
O		2.98584210		4.28210960		4.46299522		 0.00040399		 0.00036441		-0.00060326
O		8.30957115		4.45689038		0.23489398		-0.00040399		-0.00036441		 0.00060326
O		4.27627680		8.65160959		2.58383857		-0.00040399		 0.00036441		 0.00060326
O		7.01913548		0.08739039		2.11404965		 0.00040399		-0.00036441		-0.00060326
O		9.11677680		4.28210960		2.58383857		-0.00061446		 0.00015213		 0.00035323
O		2.17863644		4.45689038		2.11404965		 0.00061446		-0.00015213		-0.00035323
O		7.82634210		8.65160959		4.46299522		 0.00061446		 0.00015213		-0.00035323
O		3.46907115		0.08739039		0.23489494		-0.00061446		-0.00015213		 0.00035323
O		1.88649291		2.18475000		1.60197993		 0.00030429		 0.00023178		 0.00086869
O		9.40892034		6.55424999		3.09590926		-0.00030429		-0.00023178		-0.00086869
O		3.76121275		6.55424999		0.74696369		-0.00030429		 0.00023178		-0.00086869
O		7.53419856		2.18475000		3.95092453		 0.00030429		-0.00023178		 0.00086869
O		6.45436530		3.67037980		1.87915568		-0.00012080		 0.00016054		-0.00073341
O		4.84104795		5.06862115		2.81873448		 0.00012080		-0.00016054		 0.00073341
O		8.87434133		8.03987979		0.46978892		 0.00012080		 0.00016054		 0.00073341
O		2.42107095		0.69912019		4.22810027		-0.00012080		-0.00016054		-0.00073341
Mg		0.40360283		0.79524865		1.17447181		 0.00007288		 0.00016888		 0.00007307
Mg		1.21081042		7.94375133		3.52341738		-0.00007288		-0.00016888		-0.00007307
Mg		5.24410283		5.16474864		1.17447181		-0.00007288		 0.00016888		-0.00007307
Mg		6.05131042		3.57425134		3.52341738		 0.00007288		-0.00016888		 0.00007307
Mg		0.32288265		6.02990960		0.93957784		-0.00041914		-0.00032301		 0.00034162
Mg		1.29152963		2.70909038		3.75831232		 0.00041914		 0.00032301		-0.00034162
Mg		5.32482398		1.66040961		1.40936676		 0.00041914		-0.00032301		-0.00034162
Mg		5.97058927		7.07859037		3.28852340		-0.00041914		 0.00032301		 0.00034162
