# total energy = -24715.7352371 eV

CRYSTAL
PRIMVEC
		9.68100001		0.00000000		0.00000000
		0.00000000		8.73899998		0.00000000
		1.61441324		0.00000000		5.19240435
PRIMECORD
   40 1
Si		2.35750744		3.58299038		1.04367279		 0.00017042		 0.00038800		 0.00002202
Si		8.93790581		5.15600960		4.14873059		-0.00017042		-0.00038800		-0.00002202
Si		3.29020015		7.95249037		1.55252939		-0.00017042		 0.00038800		-0.00002202
Si		8.00521310		0.78650961		3.63987497		 0.00017042		-0.00038800		 0.00002202
Si		8.13069919		3.58299038		1.55252939		-0.00011600		 0.00018134		 0.00004758
Si		3.16471309		5.15600960		3.63987497		 0.00011600		-0.00018134		-0.00004758
Si		7.19800744		7.95249037		1.04367279		 0.00011600		 0.00018134		-0.00004758
Si		4.09740580		0.78650961		4.14873059		-0.00011600		-0.00018134		 0.00004758
O		4.03384133		3.67037980		0.51924044		 0.00081416		-0.00013152		 0.00024509
O		7.26157192		5.06862115		4.67316392		-0.00081416		 0.00013152		-0.00024509
O		1.61386530		8.03987979		2.07696174		-0.00081416		-0.00013152		-0.00024509
O		9.68154698		0.69912019		3.11544261		 0.00081416		 0.00013152		 0.00024509
O		8.60171275		2.18475000		0.82559181		-0.00024825		 0.00047636		-0.00021760
O		2.69369856		6.55424999		4.36681158		 0.00024825		-0.00047636		 0.00021760
O		6.72699291		6.55424999		1.77061037		 0.00024825		 0.00047636		 0.00021760
O		4.56842034		2.18475000		3.42179398		-0.00024825		-0.00047636		-0.00021760
O		2.98584210		4.28210960		4.93278414		 0.00046745		 0.00012971		 0.00002416
O		8.30957115		4.45689038		0.25962022		-0.00046745		-0.00012971		-0.00002416
O		4.27627680		8.65160959		2.85582239		-0.00046745		 0.00012971		-0.00002416
O		7.01913548		0.08739039		2.33658196		 0.00046745		-0.00012971		 0.00002416
O		9.11677680		4.28210960		2.85582239		-0.00059988		 0.00000009		-0.00009765
O		2.17863644		4.45689038		2.33658196		 0.00059988		-0.00000009		 0.00009765
O		7.82634210		8.65160959		4.93278414		 0.00059988		 0.00000009		 0.00009765
O		3.46907115		0.08739039		0.25962022		-0.00059988		-0.00000009		-0.00009765
O		1.88649291		2.18475000		1.77061037		 0.00079004		 0.00027476		-0.00033824
O		9.40892034		6.55424999		3.42179495		-0.00079004		-0.00027476		 0.00033824
O		3.76121275		6.55424999		0.82559181		-0.00079004		 0.00027476		 0.00033824
O		7.53419856		2.18475000		4.36681158		 0.00079004		-0.00027476		-0.00033824
O		6.45436530		3.67037980		2.07696174		-0.00061241		 0.00019872		 0.00008934
O		4.84104795		5.06862115		3.11544261		 0.00061241		-0.00019872		-0.00008934
O		8.87434133		8.03987979		0.51924044		 0.00061241		 0.00019872		-0.00008934
O		2.42107095		0.69912019		4.67316392		-0.00061241		-0.00019872		 0.00008934
Mg		0.40360283		0.79524865		1.29810109		 0.00021017		-0.00082780		-0.00053716
Mg		1.21081042		7.94375133		3.89430326		-0.00021017		 0.00082780		 0.00053716
Mg		5.24410283		5.16474864		1.29810109		-0.00021017		-0.00082780		 0.00053716
Mg		6.05131042		3.57425134		3.89430326		 0.00021017		 0.00082780		-0.00053716
Mg		0.32288265		6.02990960		1.03848087		-0.00026604		 0.00033458		-0.00045608
Mg		1.29152963		2.70909038		4.15392348		 0.00026604		-0.00033458		 0.00045608
Mg		5.32482398		1.66040961		1.55772131		 0.00026604		 0.00033458		 0.00045608
Mg		5.97058927		7.07859037		3.63468305		-0.00026604		-0.00033458		-0.00045608
