# total energy = -49438.1892059 eV

CRYSTAL
PRIMVEC
		5.08940064		0.61072685		0.00000000
		1.67615802		13.96799885		0.00000000
		0.00000000		0.00000000		8.69559800
PRIMECORD
   70 1
Si		2.54469981		0.30536394		0.00000000		0.00000000		0.00000000		0.00000000
Si		0.83808003		6.98399994		4.34780002		0.00000000		0.00000000		0.00000000
Si		3.10460682		5.55605193		0.00000000		 0.00008555		-0.00032675		0.00000000
Si		3.66095286		9.02267581		0.00000000		-0.00008555		 0.00032675		0.00000000
Si		1.54038900		12.25177567		4.34780002		 0.00063072		 0.00049928		0.00000000
Si		5.22517069		2.32695207		4.34780002		-0.00063072		-0.00049928		0.00000000
Mg		1.15302584		2.52705078		0.00000000		 0.00016208		-0.00003467		-0.00000000
Mg		5.61253385		12.05167645		0.00000000		-0.00016208		 0.00003467		-0.00000000
Mg		2.81141488		9.60948874		4.34780002		 0.00005630		-0.00010383		0.00000000
Mg		3.95414481		4.96924003		4.34780002		-0.00005630		 0.00010383		0.00000000
Mg		1.34787407		4.61477395		2.81563504		-0.00061765		-0.00016347		-0.00013572
Mg		5.41768561		9.96395482		5.87996501		 0.00061765		 0.00016347		 0.00013572
Mg		5.41768561		9.96395482		2.81563504		 0.00061765		 0.00016347		-0.00013572
Mg		1.34787407		4.61477395		5.87996501		-0.00061765		-0.00016347		 0.00013572
Mg		3.11924797		11.71076841		1.53216498		-0.00011921		-0.00057347		 0.00002330
Mg		3.64631172		2.86795882		7.16343455		 0.00011921		 0.00057347		-0.00002330
Mg		3.64631172		2.86795882		1.53216498		 0.00011921		 0.00057347		 0.00002330
Mg		3.11924797		11.71076841		7.16343455		-0.00011921		-0.00057347		-0.00002330
Mg		3.38277984		7.28936387		2.79363514		0.00000000		0.00000000		-0.00079174
Mg		3.38277984		7.28936387		5.90196389		0.00000000		0.00000000		 0.00079174
Mg		0.00000000		0.00000000		1.55416489		0.00000000		0.00000000		-0.00013965
Mg		0.00000000		0.00000000		7.14143465		0.00000000		0.00000000		 0.00013965
Mg		2.54469981		0.30536394		2.97293905		0.00000000		0.00000000		 0.00009206
Mg		2.54469981		0.30536394		5.72266100		0.00000000		0.00000000		-0.00009206
Mg		0.83808003		6.98399994		1.37486098		0.00000000		0.00000000		-0.00027949
Mg		0.83808003		6.98399994		7.32073753		0.00000000		0.00000000		 0.00027949
O		2.38330482		5.97418799		1.35755692		 0.00055650		 0.00026271		-0.00000691
O		4.38225487		8.60453975		7.33804261		-0.00055650		-0.00026271		 0.00000691
O		4.38225487		8.60453975		1.35755692		-0.00055650		-0.00026271		-0.00000691
O		2.38330482		5.97418799		7.33804261		 0.00055650		 0.00026271		 0.00000691
O		2.38458578		12.85777233		2.99024310		 0.00024794		 0.00014954		-0.00037294
O		4.38097390		1.72095593		5.70535695		-0.00024794		-0.00014954		 0.00037294
O		4.38097390		1.72095593		2.99024310		-0.00024794		-0.00014954		-0.00037294
O		2.38458578		12.85777233		5.70535695		 0.00024794		 0.00014954		 0.00037294
O		2.94404274		3.92206787		0.00000000		 0.00078871		-0.00005664		-0.00000000
O		3.82151695		10.65665987		0.00000000		-0.00078871		 0.00005664		-0.00000000
O		1.30775920		10.60914471		4.34780002		-0.00013765		 0.00041607		0.00000000
O		5.45780100		3.96958303		4.34780002		 0.00013765		-0.00041607		0.00000000
O		4.72256984		6.27307175		0.00000000		-0.00004925		-0.00032179		0.00000000
O		2.04298882		8.30565548		0.00000000		 0.00004925		 0.00032179		0.00000000
O		5.13914558		13.20649174		4.34780002		 0.00038669		 0.00034093		0.00000000
O		1.62641411		1.37223600		4.34780002		-0.00038669		-0.00034093		0.00000000
O		1.93633908		1.23830513		1.25773183		-0.00004875		 0.00035539		-0.00003678
O		4.82922060		13.34042261		7.43786771		 0.00004875		-0.00035539		 0.00003678
O		4.82922060		13.34042261		1.25773183		 0.00004875		-0.00035539		-0.00003678
O		1.93633908		1.23830513		7.43786771		-0.00004875		 0.00035539		 0.00003678
O		1.69139479		8.09234166		3.09006768		 0.00036272		 0.00013528		 0.00039417
O		5.07416489		6.48638557		5.60553083		-0.00036272		-0.00013528		-0.00039417
O		5.07416489		6.48638557		3.09006768		-0.00036272		-0.00013528		 0.00039417
O		1.69139479		8.09234166		5.60553083		 0.00036272		 0.00013528		-0.00039417
O		5.42273105		4.11791207		1.38433879		 0.00033328		-0.00079646		-0.00000708
O		1.34282915		10.46081669		7.31125972		-0.00033328		 0.00079646		 0.00000708
O		1.34282915		10.46081669		1.38433879		-0.00033328		 0.00079646		-0.00000708
O		5.42273105		4.11791207		7.31125972		 0.00033328		-0.00079646		 0.00000708
O		3.89373080		10.81786162		2.96345970		 0.00009737		-0.00030162		 0.00029957
O		2.87182888		3.76086561		5.73213882		-0.00009737		 0.00030162		-0.00029957
O		2.87182888		3.76086561		2.96345970		-0.00009737		 0.00030162		 0.00029957
O		3.89373080		10.81786162		5.73213882		 0.00009737		-0.00030162		-0.00029957
O		2.53928480		12.98110229		0.00000000		-0.00036947		 0.00040106		0.00000000
O		4.22627489		1.59762596		0.00000000		 0.00036947		-0.00040106		0.00000000
O		2.25411695		6.06345166		4.34780002		-0.00014086		 0.00018778		0.00000000
O		4.51144171		8.51527660		4.34780002		 0.00014086		-0.00018778		0.00000000
H		5.20523089		4.79047998		0.94347290		-0.00022421		 0.00018862		-0.00025344
H		1.56032880		9.78824776		7.75212664		 0.00022421		-0.00018862		 0.00025344
H		1.56032880		9.78824776		0.94347290		 0.00022421		-0.00018862		-0.00025344
H		5.20523089		4.79047998		7.75212664		-0.00022421		 0.00018862		 0.00025344
H		4.28136102		11.56304576		3.40432713		-0.00008847		-0.00006621		-0.00005026
H		2.48419866		3.01568198		5.29127189		 0.00008847		 0.00006621		 0.00005026
H		2.48419866		3.01568198		3.40432713		 0.00008847		 0.00006621		-0.00005026
H		4.28136102		11.56304576		5.29127189		-0.00008847		-0.00006621		 0.00005026
