# total energy = -49430.9772422 eV

CRYSTAL
PRIMVEC
		5.08940173		0.81430654		0.00000000
		2.23487823		13.96799796		0.00000000
		0.00000000		0.00000000		8.69559876
PRIMECORD
   70 1
Si		2.54469983		0.40715224		0.00000000		0.00000000		0.00000000		0.00000000
Si		1.11744015		6.98400001		4.34779989		0.00000000		0.00000000		0.00000000
Si		3.31497566		5.65499097		0.00000000		-0.00047244		-0.00000724		0.00000000
Si		4.00930379		9.12731250		0.00000000		 0.00047244		 0.00000724		0.00000000
Si		2.03011795		12.25462362		4.34779989		 0.00052915		 0.00002106		0.00000000
Si		5.29416201		2.52767986		4.34779989		-0.00052915		-0.00002106		0.00000000
Mg		1.24996887		2.56153890		0.00000000		 0.00063811		-0.00029559		0.00000000
Mg		6.07431058		12.22076458		0.00000000		-0.00063811		 0.00029559		0.00000000
Mg		3.18771909		9.67678890		4.34779989		-0.00056484		-0.00037510		-0.00000000
Mg		4.13656087		5.10551458		4.34779989		 0.00056484		 0.00037510		-0.00000000
Mg		1.52859715		4.64700192		2.81563506		 0.00018239		 0.00013091		-0.00004686
Mg		5.79568281		10.13530258		5.87996473		-0.00018239		-0.00013091		 0.00004686
Mg		5.79568281		10.13530258		2.81563506		-0.00018239		-0.00013091		-0.00004686
Mg		1.52859715		4.64700192		5.87996473		 0.00018239		 0.00013091		 0.00004686
Mg		3.57933111		11.78032849		1.53216484		-0.00078491		-0.00007798		-0.00034843
Mg		3.74494782		3.00197498		7.16343495		 0.00078491		 0.00007798		 0.00034843
Mg		3.74494782		3.00197498		1.53216484		 0.00078491		 0.00007798		-0.00034843
Mg		3.57933111		11.78032849		7.16343495		-0.00078491		-0.00007798		 0.00034843
Mg		3.66213998		7.39115174		2.79363516		0.00000000		0.00000000		 0.00037791
Mg		3.66213998		7.39115174		5.90196360		0.00000000		0.00000000		-0.00037791
Mg		0.00000000		0.00000000		1.55416474		0.00000000		0.00000000		 0.00044848
Mg		0.00000000		0.00000000		7.14143454		0.00000000		0.00000000		-0.00044848
Mg		2.54469983		0.40715224		2.97293866		0.00000000		0.00000000		 0.00013785
Mg		2.54469983		0.40715224		5.72266061		0.00000000		0.00000000		-0.00013785
Mg		1.11744015		6.98400001		1.37486072		0.00000000		0.00000000		-0.00056700
Mg		1.11744015		6.98400001		7.32073753		0.00000000		0.00000000		 0.00056700
O		2.61415692		6.04181789		1.35755675		-0.00045820		 0.00029634		-0.00016143
O		4.71012304		8.74048558		7.33804253		 0.00045820		-0.00029634		 0.00016143
O		4.71012304		8.74048558		1.35755675		 0.00045820		-0.00029634		-0.00016143
O		2.61415692		6.04181789		7.33804253		-0.00045820		 0.00029634		 0.00016143
O		2.89479789		12.89193055		2.99024315		 0.00005039		-0.00001051		-0.00016655
O		4.42948207		1.89037395		5.70535664		-0.00005039		 0.00001051		 0.00016655
O		4.42948207		1.89037395		2.99024315		-0.00005039		 0.00001051		-0.00016655
O		2.89479789		12.89193055		5.70535664		 0.00005039		-0.00001051		 0.00016655
O		3.08887984		4.02244992		0.00000000		 0.00053392		 0.00019219		0.00000000
O		4.23539960		10.75985356		0.00000000		-0.00053392		-0.00019219		0.00000000
O		1.73195602		10.61055174		4.34779989		 0.00004615		-0.00011197		0.00000000
O		5.59232394		4.17175277		4.34779989		-0.00004615		 0.00011197		0.00000000
O		4.95415987		6.43418396		0.00000000		-0.00055588		-0.00030889		0.00000000
O		2.37012009		8.34811952		0.00000000		 0.00055588		 0.00030889		0.00000000
O		5.65009506		13.35074370		4.34779989		 0.00043426		 0.00022604		0.00000000
O		1.67418387		1.43155978		4.34779989		-0.00043426		-0.00022604		0.00000000
O		1.97716491		1.31085979		1.25773202		-0.00004657		-0.00034557		-0.00010948
O		5.34711506		13.47144472		7.43786776		 0.00004657		 0.00034557		 0.00010948
O		5.34711506		13.47144472		1.25773202		 0.00004657		 0.00034557		-0.00010948
O		1.97716491		1.31085979		7.43786776		-0.00004657		-0.00034557		 0.00010948
O		2.01158008		8.12157581		3.09006787		 0.00030599		-0.00029115		-0.00005599
O		5.31269885		6.66072767		5.60553089		-0.00030599		 0.00029115		 0.00005599
O		5.31269885		6.66072767		3.09006787		-0.00030599		 0.00029115		-0.00005599
O		2.01158008		8.12157581		5.60553089		 0.00030599		-0.00029115		 0.00005599
O		5.56344379		4.31793479		1.38433917		 0.00002677		-0.00007677		 0.00020746
O		1.76083617		10.46436869		7.31125959		-0.00002677		 0.00007677		-0.00020746
O		1.76083617		10.46436869		1.38433917		-0.00002677		 0.00007677		 0.00020746
O		5.56344379		4.31793479		7.31125959		 0.00002677		-0.00007677		-0.00020746
O		4.31380375		10.92320245		2.96345970		-0.00015770		-0.00021875		 0.00003526
O		3.01047466		3.85910206		5.73213906		 0.00015770		 0.00021875		-0.00003526
O		3.01047466		3.85910206		2.96345970		 0.00015770		 0.00021875		 0.00003526
O		4.31380375		10.92320245		5.73213906		-0.00015770		-0.00021875		-0.00003526
O		3.05374876		13.02093746		0.00000000		 0.00015348		-0.00033622		-0.00000000
O		4.27053069		1.76136602		0.00000000		-0.00015348		 0.00033622		-0.00000000
O		2.48922075		6.12540401		4.34779989		-0.00001332		 0.00028424		0.00000000
O		4.83505869		8.65689947		4.34779989		 0.00001332		-0.00028424		0.00000000
H		5.37430001		4.97840079		0.94347271		 0.00009689		-0.00012947		 0.00062096
H		1.94997995		9.80390269		7.75212656		-0.00009689		 0.00012947		-0.00062096
H		1.94997995		9.80390269		0.94347271		-0.00009689		 0.00012947		 0.00062096
H		5.37430001		4.97840079		7.75212656		 0.00009689		-0.00012947		-0.00062096
H		4.72978966		11.68048882		3.40432667		-0.00038345		 0.00015830		 0.00039568
H		2.59448979		3.10181465		5.29127158		 0.00038345		-0.00015830		-0.00039568
H		2.59448979		3.10181465		3.40432667		 0.00038345		-0.00015830		 0.00039568
H		4.72978966		11.68048882		5.29127158		-0.00038345		 0.00015830		-0.00039568
