# total energy = -24710.9149207 eV

CRYSTAL
PRIMVEC
		9.53870161		1.14464189		0.00000000
		1.03921321		8.66010045		0.00000000
		-1.68715670		-0.20246073		4.98419032
PRIMECORD
   40 1
Mg		0.51786675		7.77984783		1.24604806		 0.00026017		 0.00013904		-0.00029733
Mg		-1.16580832		0.67779382		3.73814322		-0.00026017		-0.00013904		 0.00029733
Mg		4.76761095		4.02212047		1.24604806		 0.00025083		 0.00015452		-0.00030369
Mg		4.12314812		5.58016595		3.73814322		-0.00025083		-0.00015452		 0.00030369
Mg		-0.12498880		2.42270956		1.24604806		 0.00029903		 0.00010454		 0.00023251
Mg		-0.52295085		6.03493209		3.73814322		-0.00029903		-0.00010454		-0.00023251
Mg		5.16396668		7.32508169		1.24604806		 0.00030943		 0.00008200		 0.00022813
Mg		3.72679335		2.27720377		3.73814322		-0.00030943		-0.00008200		-0.00022813
Si		2.46854808		1.08131070		1.22461647		 0.00016595		 0.00017575		-0.00023959
Si		6.42221196		8.52097475		3.75957481		-0.00016595		-0.00017575		 0.00023959
Si		6.41775041		1.55521618		1.26747965		-0.00020652		 0.00008051		-0.00004722
Si		2.47300963		8.04707024		3.71671067		 0.00020652		-0.00008051		 0.00004722
Si		7.75750452		5.98368284		1.22461647		 0.00017572		 0.00008402		-0.00025237
Si		1.13325647		3.61860166		3.75957481		-0.00017572		-0.00008402		 0.00025237
Si		2.16800621		5.31294258		1.26747965		-0.00041376		-0.00005535		-0.00006248
Si		6.72275383		4.28934192		3.71671067		 0.00041376		 0.00005535		 0.00006248
O		0.93109261		0.81846242		0.68781790		 0.00029366		-0.00001158		-0.00029433
O		7.95966743		8.78382400		4.29637338		-0.00029366		 0.00001158		 0.00029433
O		7.93612515		1.65906640		1.80427726		 0.00010861		-0.00050245		-0.00053189
O		0.95463489		7.94322002		3.17991402		-0.00010861		 0.00050245		 0.00053189
O		6.22004906		5.72083359		0.68781790		 0.00025111		 0.00000770		-0.00031049
O		2.67071098		3.88145187		4.29637338		-0.00025111		-0.00000770		 0.00031049
O		3.68638095		5.41679377		1.80427726		 0.00027871		-0.00051073		-0.00046983
O		5.20437909		4.18549169		3.17991402		-0.00027871		 0.00051073		 0.00046983
O		3.19972969		2.58353874		1.58447374		 0.00033885		-0.00006828		 0.00041616
O		5.69102938		7.01874672		3.39971658		-0.00033885		 0.00006828		-0.00041616
O		6.03100277		2.92329212		0.90762142		 0.00048954		-0.00043437		 0.00003505
O		2.85975631		6.67899430		4.07656986		-0.00048954		 0.00043437		-0.00003505
O		8.48868710		7.48591087		1.58447374		 0.00036448		 0.00000868		 0.00043416
O		0.40207294		2.11637459		3.39971658		-0.00036448		-0.00000868		-0.00043416
O		1.78125857		6.68101948		0.90762142		 0.00047717		-0.00035113		 0.00002065
O		7.10950147		2.92126598		4.07656986		-0.00047717		 0.00035113		-0.00002065
O		3.34278759		0.45661455		0.12859244		-0.00027724		 0.00028836		 0.00025251
O		5.54797244		9.14567091		4.85559884		 0.00027724		-0.00028836		-0.00025251
O		5.36584618		0.69938201		2.36350368		-0.00028475		-0.00012266		 0.00023157
O		3.52491386		8.90290441		2.62068760		 0.00028475		 0.00012266		-0.00023157
O		8.63174404		5.35898668		0.12859244		-0.00029650		 0.00027309		 0.00021692
O		0.25901600		4.24329877		4.85559884		 0.00029650		-0.00027309		-0.00021692
O		1.11610198		4.45711033		2.36350368		-0.00022749		-0.00008489		 0.00017463
O		7.77465806		5.14517609		2.62068760		 0.00022749		 0.00008489		-0.00017463
