# total energy = -24716.0669839 eV

CRYSTAL
PRIMVEC
		9.27320033		-0.37092764		0.00000000
		-0.34906251		8.72659991		0.00000000
		0.00000000		0.00000000		5.32169984
PRIMECORD
   40 1
Mg		-0.31583327		7.89582705		1.33042542		 0.00021527		 0.00018253		-0.00047748
Mg		-0.03323110		0.83077193		3.99127535		-0.00021527		-0.00018253		 0.00047748
Mg		4.42883688		5.00860807		3.99127535		-0.00021527		-0.00018253		-0.00047748
Mg		4.49529908		3.34706420		1.33042542		 0.00021527		 0.00018253		 0.00047748
Mg		-0.09239688		2.30993129		1.33042542		-0.00039349		 0.00041168		 0.00044758
Mg		-0.25666656		6.41666863		3.99127535		 0.00039349		-0.00041168		-0.00044758
Mg		4.55446486		1.86790485		3.99127535		 0.00039349		-0.00041168		 0.00044758
Mg		4.36967110		6.48776742		1.33042542		-0.00039349		 0.00041168		-0.00044758
Si		2.67394487		0.69112001		0.35442485		 0.00025522		 0.00061760		 0.00035541
Si		6.25019016		7.66455226		4.96727499		-0.00025522		-0.00061760		-0.00035541
Si		1.78812311		3.48671612		3.01527477		-0.00025522		-0.00061760		 0.00035541
Si		7.13601378		4.86895615		2.30642507		 0.00025522		 0.00061760		-0.00035541
Si		6.53530552		0.53666459		2.30642507		-0.00025003		-0.00049785		-0.00032092
Si		2.38883044		7.81900583		3.01527477		 0.00025003		 0.00049785		 0.00032092
Si		7.19996186		3.27024298		4.96727499		 0.00025003		 0.00049785		-0.00032092
Si		1.72417410		5.08542929		0.35442485		-0.00025003		-0.00049785		 0.00032092
O		1.05507420		0.77329987		0.42147915		-0.00001842		 0.00027661		-0.00039788
O		7.86906176		7.58237241		4.90022069		 0.00001842		-0.00027661		 0.00039788
O		3.40699378		3.40453627		3.08232908		 0.00001842		-0.00027661		-0.00039788
O		5.51714218		4.95113600		2.23937077		-0.00001842		 0.00027661		 0.00039788
O		8.15278224		0.48939192		2.23937077		-0.00025433		 0.00045147		-0.00075204
O		0.77135465		7.86628036		3.08232908		 0.00025433		-0.00045147		 0.00075204
O		5.58248700		3.31751565		4.90022069		 0.00025433		-0.00045147		-0.00075204
O		3.34164896		5.03815477		0.42147915		-0.00025433		 0.00045147		 0.00075204
O		3.40573904		2.04715715		0.37251927		-0.00038260		-0.00007982		 0.00006911
O		5.51839692		6.30851512		4.94918058		 0.00038260		 0.00007982		-0.00006911
O		1.05632894		2.13067805		3.03336919		 0.00038260		 0.00007982		 0.00006911
O		7.86780702		6.22499329		2.28833065		-0.00038260		-0.00007982		-0.00006911
O		5.69250962		1.95568741		2.28833065		 0.00033706		 0.00010880		 0.00016589
O		3.23162634		6.39998487		3.03336919		-0.00033706		-0.00010880		-0.00016589
O		8.04275776		1.85122109		4.94918058		-0.00033706		-0.00010880		 0.00016589
O		0.88137820		6.50445026		0.37251927		 0.00033706		 0.00010880		-0.00016589
O		2.90738205		8.37242657		1.53903603		 0.00035335		 0.00003427		 0.00026657
O		6.01675391		-0.01675615		3.78266381		-0.00035335		-0.00003427		-0.00026657
O		1.20562156		4.53200763		4.19988595		-0.00035335		-0.00003427		 0.00026657
O		7.71851440		3.82366279		1.12181389		 0.00035335		 0.00003427		-0.00026657
O		5.68563176		8.26129677		1.12181389		 0.00063022		 0.00026525		-0.00014633
O		3.23850420		0.09437365		4.19988595		-0.00063022		-0.00026525		 0.00014633
O		7.70057218		4.27220979		3.78266381		-0.00063022		-0.00026525		-0.00014633
O		1.22356378		4.08346063		1.53903603		 0.00063022		 0.00026525		 0.00014633
