# total energy = -24708.619396 eV

CRYSTAL
PRIMVEC
		9.27320348		1.48371669		0.00000000
		1.39625694		8.72660117		0.00000000
		0.00000000		0.00000000		5.32170000
PRIMECORD
   40 1
Mg		1.26333183		7.89582745		1.33042500		-0.00001992		 0.00054487		-0.00022495
Mg		0.13292417		0.83077185		3.99127500		 0.00001992		-0.00054487		 0.00022495
Mg		5.46765157		5.93592796		3.99127500		 0.00001992		-0.00054487		-0.00022495
Mg		5.20180416		4.27438427		1.33042500		-0.00001992		 0.00054487		 0.00022495
Mg		0.36958859		2.30993101		1.33042500		-0.00006648		-0.00027974		-0.00030281
Mg		1.02666741		6.41666922		3.99127500		 0.00006648		 0.00027974		 0.00030281
Mg		4.96513881		2.79522510		3.99127500		 0.00006648		 0.00027974		-0.00030281
Mg		5.70431692		7.41508712		1.33042500		-0.00006648		-0.00027974		 0.00030281
Si		2.83381708		1.23230442		0.35442470		-0.00044313		 0.00039869		 0.00003219
Si		7.83563865		8.97800781		4.96727529		 0.00044313		-0.00039869		-0.00003219
Si		2.50091125		3.87285169		3.01527470		 0.00044313		-0.00039869		 0.00003219
Si		8.16854541		6.33745959		2.30642530		-0.00044313		 0.00039869		-0.00003219
Si		6.69517683		1.85012074		2.30642530		 0.00015670		-0.00050372		-0.00010505
Si		3.97427890		8.36018961		3.01527470		-0.00015670		 0.00050372		 0.00010505
Si		7.91275123		4.73874737		4.96727529		-0.00015670		 0.00050372		-0.00010505
Si		2.75670543		5.47156486		0.35442470		 0.00015670		-0.00050372		 0.00010505
O		1.21843557		0.99084864		0.42147937		-0.00029122		 0.00013495		 0.00018741
O		9.45102016		9.21946265		4.90022063		 0.00029122		-0.00013495		-0.00018741
O		4.11629182		4.11430747		3.08232937		 0.00029122		-0.00013495		 0.00018741
O		6.55316391		6.09600475		2.23937063		-0.00029122		 0.00013495		-0.00018741
O		8.31614325		2.12648247		2.23937063		 0.00003964		 0.00000288		-0.00075496
O		2.35331341		8.08382976		3.08232937		-0.00003964		-0.00000288		 0.00075496
O		6.29178481		4.46238470		4.90022063		-0.00003964		-0.00000288		-0.00075496
O		4.37767092		5.74792565		0.42147937		 0.00003964		 0.00000288		 0.00075496
O		3.84311557		2.74580043		0.37251862		-0.00005749		-0.00022750		 0.00017454
O		6.82633922		7.46451179		4.94918137		 0.00005749		 0.00022750		-0.00017454
O		1.49161183		2.35935568		3.03336862		 0.00005749		 0.00022750		 0.00017454
O		9.17784484		7.85095561		2.28833137		-0.00005749		-0.00022750		-0.00017454
O		6.12988707		3.11168421		2.28833137		-0.00022247		 0.00036713		 0.00017605
O		4.53956866		7.09862801		3.03336862		 0.00022247		-0.00036713		-0.00017605
O		8.47804099		3.47718389		4.94918137		 0.00022247		-0.00036713		 0.00017605
O		2.19141474		6.73312739		0.37251862		-0.00022247		 0.00036713		-0.00017605
O		4.60784699		9.02192175		1.53903618		 0.00004070		-0.00006251		 0.00008272
O		6.06160874		1.18838860		3.78266382		-0.00004070		 0.00006251		-0.00008272
O		2.12313734		4.80983272		4.19988618		-0.00004070		 0.00006251		 0.00008272
O		8.54631932		5.40047763		1.12181382		 0.00004070		-0.00006251		-0.00008272
O		7.38609759		9.46644230		1.12181382		 0.00013118		 0.00036561		-0.00043925
O		3.28335813		0.74386899		4.19988618		-0.00013118		-0.00036561		 0.00043925
O		8.61808647		5.84902510		3.78266382		-0.00013118		-0.00036561		-0.00043925
O		2.05137020		4.36128712		1.53903618		 0.00013118		 0.00036561		 0.00043925
