# total energy = -24711.8243193 eV

CRYSTAL
PRIMVEC
		9.27320145		1.11278193		0.00000000
		1.04718902		8.72660319		0.00000000
		0.00000000		0.00000000		5.32170249
PRIMECORD
   40 1
Mg		0.94749863		7.89582688		1.33042469		 0.00055133		-0.00005886		 0.00040423
Mg		0.09969319		0.83077164		3.99127500		-0.00055133		 0.00005886		-0.00040423
Mg		5.25988936		5.75046420		3.99127500		-0.00055133		 0.00005886		 0.00040423
Mg		5.06050298		4.08891999		1.33042469		 0.00055133		-0.00005886		-0.00040423
Mg		0.27719193		2.30993057		1.33042469		-0.00078654		 0.00033086		-0.00011893
Mg		0.76999989		6.41666889		3.99127500		 0.00078654		-0.00033086		 0.00011893
Mg		4.88300424		2.60976106		3.99127500		 0.00078654		-0.00033086		-0.00011893
Mg		5.43738810		7.22962313		1.33042469		-0.00078654		 0.00033086		 0.00011893
Si		2.80184192		1.12406713		0.35442494		 0.00011425		-0.00013796		-0.00033812
Si		7.51854856		8.71531706		4.96727474		-0.00011425		 0.00013796		 0.00033812
Si		2.35835426		3.79562544		3.01527526		-0.00011425		 0.00013796		-0.00033812
Si		7.96203902		6.04375875		2.30642537		 0.00011425		-0.00013796		 0.00033812
Si		6.66320316		1.58742973		2.30642537		-0.00041558		 0.00051151		 0.00025472
Si		3.65718918		8.25195353		3.01527526		 0.00041558		-0.00051151		-0.00025472
Si		7.77019259		4.44504570		4.96727474		 0.00041558		-0.00051151		 0.00025472
Si		2.55019881		5.39433756		0.35442494		-0.00041558		 0.00051151		-0.00025472
O		1.18576257		0.94733892		0.42147859		 0.00015231		 0.00007446		-0.00014806
O		9.13462884		8.89204527		4.90022110		-0.00015231		-0.00007446		 0.00014806
O		3.97443173		3.97235271		3.08232890		-0.00015231		-0.00007446		-0.00014806
O		6.34595874		5.86703055		2.23937079		 0.00015231		 0.00007446		 0.00014806
O		8.28347137		1.79906424		2.23937079		-0.00026027		-0.00078765		-0.00082992
O		2.03692097		8.04031995		3.08232890		 0.00026027		 0.00078765		 0.00082992
O		6.14992531		4.23341213		4.90022110		 0.00026027		 0.00078765		-0.00082992
O		4.17046703		5.60597206		0.42147859		-0.00026027		-0.00078765		 0.00082992
O		3.75564112		2.60607187		0.37251880		-0.00014566		 0.00050753		 0.00000303
O		6.56475122		7.23331232		4.94918089		 0.00014566		-0.00050753		-0.00000303
O		1.40455505		2.31361976		3.03336911		 0.00014566		-0.00050753		 0.00000303
O		8.91583730		7.52576256		2.28833058		-0.00014566		 0.00050753		-0.00000303
O		6.04241103		2.88048430		2.28833058		 0.00066712		-0.00006576		 0.00014309
O		4.27798038		6.95889989		3.03336911		-0.00066712		 0.00006576		-0.00014309
O		8.39098472		3.15199207		4.94918089		-0.00066712		 0.00006576		 0.00014309
O		1.92940762		6.68739212		0.37251880		 0.00066712		-0.00006576		-0.00014309
O		4.26775431		8.89202286		1.53903593		-0.00070995		 0.00026261		-0.00065850
O		6.05263803		0.94736040		3.78266376		 0.00070995		-0.00026261		 0.00065850
O		1.93963369		4.75426823		4.19988624		 0.00070995		-0.00026261		-0.00065850
O		8.38075772		5.08511503		1.12181438		-0.00070995		 0.00026261		 0.00065850
O		7.04600500		9.22541286		1.12181438		 0.00015562		-0.00030185		 0.00031823
O		3.27438734		0.61397039		4.19988624		-0.00015562		 0.00030185		-0.00031823
O		8.43458258		5.53366202		3.78266376		-0.00015562		 0.00030185		 0.00031823
O		1.88580883		4.30572217		1.53903593		 0.00015562		-0.00030185		-0.00031823
