# total energy = -24716.0669839 eV

CRYSTAL
PRIMVEC
		9.27320033		0.37092764		0.00000000
		0.34906251		8.72659991		0.00000000
		0.00000000		0.00000000		5.32169984
PRIMECORD
   40 1
Mg		0.31583327		7.89582705		1.33042542		-0.00021529		 0.00018256		 0.00047749
Mg		0.03323110		0.83077193		3.99127535		 0.00021529		-0.00018256		-0.00047749
Mg		4.84436252		5.37953571		3.99127535		 0.00021529		-0.00018256		 0.00047749
Mg		4.77790125		3.71799185		1.33042542		-0.00021529		 0.00018256		-0.00047749
Mg		0.09239688		2.30993129		1.33042542		 0.00039350		 0.00041167		-0.00044759
Mg		0.25666656		6.41666863		3.99127535		-0.00039350		-0.00041167		 0.00044759
Mg		4.71873454		2.23883342		3.99127535		-0.00039350		-0.00041167		-0.00044759
Mg		4.90352923		6.85869507		1.33042542		 0.00039350		 0.00041167		 0.00044759
Si		2.73789388		0.90759316		0.35442485		 0.00025003		-0.00049782		 0.00032091
Si		6.88436989		8.18993440		4.96727499		-0.00025003		 0.00049782		-0.00032091
Si		2.07323754		3.64117062		3.01527477		-0.00025003		 0.00049782		 0.00032091
Si		7.54902623		5.45635693		2.30642507		 0.00025003		-0.00049782		-0.00032091
Si		6.59925360		1.06204766		2.30642507		-0.00025521		 0.00061762		-0.00035541
Si		3.02300924		8.03547990		3.01527477		 0.00025521		-0.00061762		 0.00035541
Si		7.48507815		3.85764376		4.96727499		 0.00025521		-0.00061762		-0.00035541
Si		2.13718655		5.23988379		0.35442485		-0.00025521		 0.00061762		 0.00035541
O		1.12041902		0.86031956		0.42147915		 0.00025433		 0.00045147		 0.00075205
O		8.50184568		8.23720800		4.90022069		-0.00025433		-0.00045147		-0.00075205
O		3.69071333		3.68844422		3.08232908		-0.00025433		-0.00045147		 0.00075205
O		5.93155136		5.40908334		2.23937077		 0.00025433		 0.00045147		-0.00075205
O		8.21812613		1.14422844		2.23937077		 0.00001843		 0.00027659		 0.00039789
O		1.40413764		7.95330005		3.08232908		-0.00001843		-0.00027659		-0.00039789
O		5.86620562		3.77546391		4.90022069		-0.00001843		-0.00027659		 0.00039789
O		3.75605815		5.32206364		0.42147915		 0.00001843		 0.00027659		-0.00039789
O		3.58068978		2.32661505		0.37251927		-0.00033706		 0.00010879		-0.00016591
O		6.04157399		6.77091251		4.94918058		 0.00033706		-0.00010879		 0.00016591
O		1.23044164		2.22214873		3.03336919		 0.00033706		-0.00010879		-0.00016591
O		8.39182213		6.87537790		2.28833065		-0.00033706		 0.00010879		 0.00016591
O		5.86746129		2.41808480		2.28833065		 0.00038263		-0.00007983		-0.00006909
O		3.75480341		6.67944276		3.03336919		-0.00038263		 0.00007983		 0.00006909
O		8.21687139		2.50160570		4.94918058		-0.00038263		 0.00007983		-0.00006909
O		1.40539331		6.59592093		0.37251927		 0.00038263		-0.00007983		 0.00006909
O		3.58756764		8.63222534		1.53903603		-0.00063022		 0.00026526		 0.00014632
O		6.03469613		0.46530222		3.78266381		 0.00063022		-0.00026526		-0.00014632
O		1.57262815		4.64313836		4.19988595		 0.00063022		-0.00026526		 0.00014632
O		8.04963562		4.45438920		1.12181389		-0.00063022		 0.00026526		-0.00014632
O		6.36581828		8.74335514		1.12181389		-0.00035335		 0.00003425		-0.00026658
O		3.25644642		0.35417242		4.19988595		 0.00035335		-0.00003425		 0.00026658
O		8.06757784		4.90293620		3.78266381		 0.00035335		-0.00003425		-0.00026658
O		1.55468593		4.19459136		1.53903603		-0.00035335		 0.00003425		 0.00026658
