# total energy = -24714.4099597 eV

CRYSTAL
PRIMVEC
		9.27319719		0.74185391		0.00000000
		0.69813063		8.72660031		0.00000000
		0.00000000		0.00000000		5.32170062
PRIMECORD
   40 1
Mg		0.63166565		7.89582718		1.33042515		 0.00014312		-0.00034517		-0.00045776
Mg		0.06646218		0.83077219		3.99127453		-0.00014312		 0.00034517		 0.00045776
Mg		5.05212610		5.56500023		3.99127453		-0.00014312		 0.00034517		-0.00045776
Mg		4.91920173		3.90345585		1.33042515		 0.00014312		-0.00034517		 0.00045776
Mg		0.18479414		2.30993094		1.33042515		-0.00020136		-0.00032857		 0.00016402
Mg		0.51333370		6.41666844		3.99127453		 0.00020136		 0.00032857		-0.00016402
Mg		4.80086977		2.42429710		3.99127453		 0.00020136		 0.00032857		 0.00016402
Mg		5.17045805		7.04415898		1.33042515		-0.00020136		-0.00032857		-0.00016402
Si		2.76986827		1.01582960		0.35442467		-0.00024497		-0.00005455		 0.00004897
Si		7.20145955		8.45262555		4.96727501		 0.00024497		 0.00005455		-0.00004897
Si		2.21579564		3.71839751		3.01527498		 0.00024497		 0.00005455		 0.00004897
Si		7.75553311		5.75005764		2.30642470		-0.00024497		-0.00005455		-0.00004897
Si		6.63122883		1.32473927		2.30642470		-0.00018667		-0.00020141		-0.00016717
Si		3.34009899		8.14371682		3.01527498		 0.00018667		 0.00020141		 0.00016717
Si		7.62763506		4.15134455		4.96727501		 0.00018667		 0.00020141		-0.00016717
Si		2.34369276		5.31711060		0.35442467		-0.00018667		-0.00020141		 0.00016717
O		1.15309095		0.90382915		0.42147945		-0.00037664		 0.00005362		-0.00038664
O		8.81823687		8.56462600		4.90022117		 0.00037664		-0.00005362		 0.00038664
O		3.83257296		3.83039796		3.08232883		 0.00037664		-0.00005362		-0.00038664
O		6.13875486		5.63805719		2.23937086		-0.00037664		 0.00005362		 0.00038664
O		8.25079886		1.47164578		2.23937086		-0.00021084		 0.00009771		-0.00024117
O		1.72052989		7.99680937		3.08232883		 0.00021084		-0.00009771		 0.00024117
O		6.00806503		4.00443803		4.90022117		 0.00021084		-0.00009771		-0.00024117
O		3.96326186		5.46401805		0.42147945		-0.00021084		 0.00009771		 0.00024117
O		3.66816503		2.46634309		0.37251867		-0.00008694		-0.00028912		-0.00002205
O		6.30316186		7.00211300		4.94918102		 0.00008694		 0.00028912		 0.00002205
O		1.31749888		2.26788495		3.03336898		 0.00008694		 0.00028912		-0.00002205
O		8.65382987		7.20057113		2.28833071		-0.00008694		-0.00028912		 0.00002205
O		5.95493566		2.64928503		2.28833071		-0.00044156		-0.00023578		-0.00034876
O		4.01639216		6.81917105		3.03336898		 0.00044156		 0.00023578		 0.00034876
O		8.30392824		2.82679878		4.94918102		 0.00044156		 0.00023578		-0.00034876
O		1.66739958		6.64165544		0.37251867		-0.00044156		-0.00023578		 0.00034876
O		3.92766087		8.76212408		1.53903639		 0.00018411		 0.00038689		 0.00041404
O		6.04366695		0.70633107		3.78266423		-0.00018411		-0.00038689		-0.00041404
O		1.75613088		4.69870334		4.19988577		-0.00018411		-0.00038689		 0.00041404
O		8.21519694		4.76975181		1.12181392		 0.00018411		 0.00038689		-0.00041404
O		6.70591192		8.98438349		1.12181392		 0.00007194		 0.00028239		-0.00043343
O		3.26541590		0.48407073		4.19988577		-0.00007194		-0.00028239		 0.00043343
O		8.25108074		5.21829877		3.78266423		-0.00007194		-0.00028239		-0.00043343
O		1.72024801		4.25015731		1.53903639		 0.00007194		 0.00028239		 0.00043343
