# total energy = -24714.4099597 eV

CRYSTAL
PRIMVEC
		9.27319719		-0.74185391		0.00000000
		-0.69813063		8.72660031		0.00000000
		0.00000000		0.00000000		5.32170062
PRIMECORD
   40 1
Mg		-0.63166565		7.89582718		1.33042515		-0.00014312		-0.00034517		 0.00045777
Mg		-0.06646218		0.83077219		3.99127453		 0.00014312		 0.00034517		-0.00045777
Mg		4.22107389		4.82314353		3.99127453		 0.00014312		 0.00034517		 0.00045777
Mg		4.35399826		3.16160007		1.33042515		-0.00014312		-0.00034517		-0.00045777
Mg		-0.18479414		2.30993094		1.33042515		 0.00020135		-0.00032861		-0.00016403
Mg		-0.51333370		6.41666844		3.99127453		-0.00020135		 0.00032861		 0.00016403
Mg		4.47233114		1.68244133		3.99127453		-0.00020135		 0.00032861		-0.00016403
Mg		4.10274193		6.30230321		1.33042515		 0.00020135		-0.00032861		 0.00016403
Si		2.64197115		0.58288256		0.35442467		 0.00018661		-0.00020142		 0.00016719
Si		5.93310099		7.40186104		4.96727501		-0.00018661		 0.00020142		-0.00016719
Si		1.64556492		3.40948877		3.01527498		-0.00018661		 0.00020142		 0.00016719
Si		6.92950722		4.57525483		2.30642470		 0.00018661		-0.00020142		-0.00016719
Si		6.50333171		0.27397383		2.30642470		 0.00024500		-0.00005451		-0.00004902
Si		2.07173950		7.71076977		3.01527498		-0.00024500		 0.00005451		 0.00004902
Si		7.05740528		2.97654173		4.96727501		-0.00024500		 0.00005451		-0.00004902
Si		1.51766780		5.00820187		0.35442467		 0.00024500		-0.00005451		 0.00004902
O		1.02240205		0.72979001		0.42147945		 0.00021085		 0.00009768		 0.00024112
O		7.55267102		7.25495359		4.90022117		-0.00021085		-0.00009768		-0.00024112
O		3.26513402		3.26258226		3.08232883		-0.00021085		-0.00009768		 0.00024112
O		5.30993719		4.72216227		2.23937086		 0.00021085		 0.00009768		-0.00024112
O		8.12010903		0.16197338		2.23937086		 0.00037658		 0.00005360		 0.00038667
O		0.45496311		7.82277022		3.08232883		-0.00037658		-0.00005360		-0.00038667
O		5.44062702		3.08854218		4.90022117		-0.00037658		-0.00005360		 0.00038667
O		3.13444512		4.89620049		0.42147945		 0.00037658		 0.00005360		-0.00038667
O		3.31826433		1.90742926		0.37251867		 0.00044158		-0.00023582		 0.00034874
O		5.25680782		6.07731527		4.94918102		-0.00044158		 0.00023582		-0.00034874
O		0.96927175		2.08494301		3.03336898		-0.00044158		 0.00023582		 0.00034874
O		7.60579947		5.89979966		2.28833071		 0.00044158		-0.00023582		-0.00034874
O		5.60503402		1.72448731		2.28833071		 0.00008694		-0.00028910		 0.00002205
O		2.97003720		6.26025722		3.03336898		-0.00008694		 0.00028910		-0.00002205
O		7.95570204		1.52602918		4.94918102		-0.00008694		 0.00028910		 0.00002205
O		0.61937104		6.45871442		0.37251867		 0.00008694		-0.00028910		-0.00002205
O		2.56728899		8.24252772		1.53903639		-0.00007194		 0.00028240		 0.00043342
O		6.00778409		-0.25778505		3.78266423		 0.00007194		-0.00028240		-0.00043342
O		1.02212017		4.47644299		4.19988577		 0.00007194		-0.00028240		 0.00043342
O		7.55295290		3.50829968		1.12181392		-0.00007194		 0.00028240		-0.00043342
O		5.34553911		8.02026737		1.12181392		-0.00018409		 0.00038686		-0.00041406
O		3.22953303		-0.03552470		4.19988577		 0.00018409		-0.00038686		 0.00041406
O		7.51706911		3.95684663		3.78266423		 0.00018409		-0.00038686		-0.00041406
O		1.05800304		4.02789604		1.53903639		-0.00018409		 0.00038686		 0.00041406
