# total energy = -117571.787488 eV	

CRYSTAL	
PRIMVEC	
		10.58799967		0.00000000		0.00000000	
		0.00000000		14.09700041		-2.25551922	
		-2.45393833		-1.56312757		9.76951553	
PRIMCOORD
   156 1	
Si		8.18330189		-0.10194973		0.72217675		 0.00023762		 0.00219243		 0.00153140	
Si		-0.04923632		12.63582681		6.79182274		-0.00023762		-0.00219243		-0.00153140	
Si		1.17773073		6.39679929		3.03035750		 0.00179280		-0.00215766		 0.00338755	
Si		6.95633484		6.13707672		4.48364410		-0.00179280		 0.00215766		-0.00338755	
Si		3.61492732		1.62046688		6.15281684		 0.00057365		 0.00131320		 0.00130196	
Si		4.51914037		10.91340914		1.36118371		-0.00057365		-0.00131320		-0.00130196	
Si		3.29217333		8.43005840		6.51823095		-0.00099565		-0.00108792		 0.00143421	
Si		4.84189437		4.10381762		0.99576961		 0.00099565		 0.00108792		-0.00143421	
Si		1.21183891		1.10211124		3.88607540		-0.00338057		 0.00012374		-0.00044872	
Si		6.92222666		11.43176690		3.62792515		 0.00338057		-0.00012374		 0.00044872	
Si		8.14919371		8.70317373		-0.69521018		-0.00058698		-0.00037532		-0.00133817	
Si		-0.01512708		3.83070228		8.20921073		 0.00058698		 0.00037532		 0.00133817	
Si		6.86524205		0.84291277		5.31976150		 0.00046135		 0.00183423		 0.00170135	
Si		1.26882459		11.69096219		2.19423905		-0.00046135		-0.00183423		-0.00170135	
Si		0.04185754		7.33806823		7.65041210		-0.00182925		 0.00206322		 0.00007465	
Si		8.09220909		5.19580884		-0.13641155		 0.00182925		-0.00206322		-0.00007465	
Mg		4.06703279		-0.78156167		4.88475988		0.00000000		0.00000000		0.00000000	
Mg		5.29399984		7.04850020		-1.12775961		0.00000000		0.00000000		0.00000000	
Mg		4.39572559		1.90298542		3.08814892		 0.00147160		 0.00441004		-0.00344475	
Mg		3.73834104		10.63089060		4.42585163		-0.00147160		-0.00441004		 0.00344475	
Mg		4.96530809		9.28408645		-0.11836960		 0.00001996		-0.00062582		 0.00230247	
Mg		3.16875854		3.24978850		7.63237121		-0.00001996		 0.00062582		-0.00230247	
Mg		5.29399984		0.00000000		0.00000000		0.00000000		0.00000000		0.00000000	
Mg		4.06703279		6.26693748		3.75700028		0.00000000		0.00000000		0.00000000	
Mg		6.19165257		-0.42311235		2.85822098		-0.00296948		 0.00299833		-0.00166807	
Mg		1.94241301		12.95698837		4.65577957		 0.00296948		-0.00299833		 0.00166807	
Mg		3.16938006		6.76025356		0.88754648		 0.00077134		-0.00574757		 0.00446778	
Mg		4.96468552		5.77362246		6.62645407		-0.00077134		 0.00574757		-0.00446778	
Mg		0.42170944		-0.23328646		1.48808618		-0.00031650		-0.00024359		 0.00013327	
Mg		7.71235825		12.76716247		6.02591437		 0.00031650		 0.00024359		-0.00013327	
Mg		8.93932424		6.51009195		2.26733543		-0.00288162		-0.00090897		-0.00544843	
Mg		-0.80525761		6.02378407		5.24666512		 0.00288162		 0.00090897		 0.00544843	
Mg		-0.86838750		-0.98721238		6.20012085		-0.00005874		-0.00122106		-0.00559869	
Mg		9.00245519		13.52108840		1.31387970		 0.00005874		 0.00122106		 0.00559869	
Mg		7.77548814		5.70089455		7.32482053		-0.00470920		-0.00310570		 0.00131467	
Mg		0.35857849		6.83298147		0.18918003		 0.00470920		 0.00310570		-0.00131467	
Mg		3.19404057		-0.29772608		2.09859553		 0.00228291		-0.00263711		 0.00019915	
Mg		4.94002607		12.83160210		5.41540502		-0.00228291		 0.00263711		-0.00019915	
Mg		6.16699311		6.64276170		1.64590878		 0.00092524		-0.00073474		 0.00478027	
Mg		1.96707352		5.89111431		5.86809071		-0.00092524		 0.00073474		-0.00478027	
Mg		6.57114024		2.20242569		0.82430648		-0.00525977		-0.00113501		-0.00058150	
Mg		1.56292640		10.33144926		6.68969301		 0.00525977		 0.00113501		 0.00058150	
Mg		2.78989239		8.85579975		2.16608662		-0.00125624		-0.00114003		-0.00347136	
Mg		5.34417319		3.67807733		5.34791393		 0.00125624		 0.00114003		 0.00347136	
Mg		-1.63791484		0.92342816		9.08332845		 0.00025951		-0.00129455		 0.00175064	
Mg		9.77198042		11.61044892		-1.56932790		-0.00025951		 0.00129455		-0.00175064	
Mg		8.54501337		8.65879625		3.66264637		-0.00148410		 0.00012738		-0.00189249	
Mg		-0.41094780		3.87508082		3.85135418		 0.00148410		-0.00012738		 0.00189249	
Mg		0.46893509		1.32256716		6.94670823		 0.00002968		 0.00051126		-0.00576809	
Mg		7.66513154		11.21130992		0.56729232		-0.00002968		-0.00051126		 0.00576809	
Mg		6.43816449		8.37722534		5.78045701		-0.00154928		 0.00002857		-0.00337687	
Mg		1.69590108		4.15665068		1.73354354		 0.00154928		-0.00002857		 0.00337687	
Mg		6.00405545		1.08130900		8.34553969		-0.00013534		 0.00011456		-0.00076462	
Mg		2.13001119		11.45256808		-0.83153914		 0.00013534		-0.00011456		 0.00076462	
Mg		0.90304414		8.58267700		4.38735366		 0.00173205		 0.00027526		-0.00094289	
Mg		7.23102249		3.95120007		3.12664689		-0.00173205		-0.00027526		 0.00094289	
Mg		3.60529224		2.30583445		0.06039183		 0.00099082		-0.00181126		 0.00412812	
Mg		4.52877334		10.22804262		7.45360872		-0.00099082		 0.00181126		-0.00412812	
Mg		5.75574038		8.71376597		2.93618148		-0.00149447		 0.00178364		-0.00238725	
Mg		2.37832519		3.82011111		4.57781907		 0.00149447		-0.00178364		 0.00238725	
Mg		9.40458318		2.19143641		1.54202145		 0.00358700		-0.00154487		 0.00290124	
Mg		-1.27051655		10.34243855		5.97198016		-0.00358700		 0.00154487		-0.00290124	
Mg		-0.04354950		9.07993606		1.41426876		 0.00252655		 0.00062398		-0.00119985	
Mg		8.17761719		3.45394102		6.09973073		-0.00252655		-0.00062398		 0.00119985	
O		3.63390525		0.01342664		6.37205620		 0.00194955		-0.00091034		 0.00226008	
O		4.50016138		12.52044831		1.14194541		-0.00194955		 0.00091034		-0.00226008	
O		3.27319539		6.81057726		6.81523492		 0.00404065		 0.00669195		-0.00350184	
O		4.86087230		5.72329981		0.69876563		-0.00404065		-0.00669195		 0.00350184	
O		5.72267194		0.50396126		4.31067537		 0.00309348		-0.00097893		 0.00260590	
O		2.41139469		12.02991582		3.20332518		-0.00309348		 0.00097893		-0.00260590	
O		3.63836068		8.21303617		-0.94568413		 0.00465968		 0.00318690		-0.00232655	
O		4.49570490		4.32083985		8.45968468		-0.00465968		-0.00318690		 0.00232655	
O		6.88739955		2.48823604		5.05270250		-0.00095365		 0.00092927		-0.00168784	
O		1.24666708		10.04564104		2.46129805		 0.00095365		-0.00092927		 0.00168784	
O		0.01970003		8.98214000		7.39116917		-0.00336474		 0.00080831		-0.00295461	
O		8.11436554		3.55173708		0.12283244		 0.00336474		-0.00080831		 0.00295461	
O		6.50173167		0.07016244		6.92747937		 0.00175142		-0.00192862		 0.00149856	
O		1.63233497		12.46371464		0.58652118		-0.00175142		 0.00192862		-0.00149856	
O		0.40536792		7.05269729		6.21199423		-0.00047635		 0.00139326		 0.00456983	
O		7.72869871		5.48117873		1.30200738		 0.00047635		-0.00139326		-0.00456983	
O		1.23586097		2.75435165		3.60410638		-0.00186215		 0.00019936		-0.00379646	
O		6.89820461		9.77952437		3.90989523		 0.00186215		-0.00019936		 0.00379646	
O		8.12517166		10.34963204		-0.94103282		-0.00101581		 0.00005483		-0.00038600	
O		0.00889392		2.18424504		8.45503231		 0.00101581		-0.00005483		 0.00038600	
O		2.73335141		0.63293474		3.55609192		-0.00142748		 0.00212665		 0.00208236	
O		5.40071417		11.90094128		3.95790863		 0.00142748		-0.00212665		-0.00208236	
O		6.62768122		8.10097808		-0.19380804		-0.00071895		-0.00202627		 0.00018118	
O		1.50638648		4.43289900		7.70780753		 0.00071895		 0.00202627		-0.00018118	
O		0.80050677		0.31873585		5.48549757		 0.00051042		 0.00240755		 0.00197391	
O		7.33355880		12.21513911		2.02850298		-0.00051042		-0.00240755		-0.00197391	
O		6.10659175		6.84077636		7.64811133		-0.00492690		 0.00192849		-0.00352024	
O		2.02747382		5.69309966		-0.13411078		 0.00492690		-0.00192849		 0.00352024	
O		0.07524997		0.74627927		2.89920395		-0.00062237		-0.00314822		-0.00227993	
O		8.05881560		11.78759674		4.61479660		 0.00062237		 0.00314822		 0.00227993	
O		9.28578265		8.00455105		0.46037364		-0.00031745		 0.00152614		 0.00023203	
O		-1.15171602		4.52932603		7.05362691		 0.00031745		-0.00152614		-0.00023203	
O		3.98348606		2.57424448		4.62674939		 0.00039005		 0.00076515		 0.00125532	
O		4.15057952		9.95963154		2.88725116		-0.00039005		-0.00076515		-0.00125532	
O		2.92361247		8.93278192		7.81125652		-0.00297964		 0.00206929		-0.00111932	
O		5.21045311		3.60109516		-0.29725597		 0.00297964		-0.00206929		 0.00111932	
O		4.65489441		2.14508956		7.07717357		 0.00006811		 0.00135354		 0.00158578	
O		3.47917116		10.38878646		0.43682593		-0.00006811		-0.00135354		-0.00158578	
O		2.25220517		9.28581336		5.37301278		 0.00282275		-0.00123463		-0.00087971	
O		5.88186146		3.24806266		2.14098777		-0.00282275		 0.00123463		 0.00087971	
O		4.87379495		0.93064070		1.48938956		 0.00246657		-0.00599795		 0.00000439	
O		3.26027062		11.60323531		6.02461099		-0.00246657		 0.00599795		-0.00000439	
O		4.48723767		7.73560632		1.88372055		 0.00044748		-0.00091577		-0.00278270	
O		3.64682896		4.79826969		5.63028000		-0.00044748		 0.00091577		 0.00278270	
O		4.67919493		-0.46710019		9.30667066		-0.00359080		 0.00004662		-0.00055042	
O		3.45487170		13.00097621		-1.79267011		 0.00359080		-0.00004662		 0.00055042	
O		2.22790466		7.26854848		3.88422886		-0.00067114		-0.00008462		 0.00124133	
O		5.90616198		5.26532753		3.62977169		 0.00067114		 0.00008462		-0.00124133	
O		7.85626399		0.72450611		1.97073591		-0.00069674		-0.00330339		-0.00045956	
O		0.27780158		11.80937096		5.54326464		 0.00069674		 0.00330339		 0.00045956	
O		1.50476863		7.67671799		1.44477808		-0.00092132		 0.00015280		 0.00423109	
O		6.62929800		4.85715909		6.06922141		 0.00092132		-0.00015280		-0.00423109	
O		-1.10338921		-0.27836169		7.86950217		 0.00264813		-0.00135430		-0.00123315	
O		9.23745584		12.81223876		-0.35550056		-0.00264813		 0.00135430		 0.00123315	
O		8.01048880		6.99522774		5.33493093		-0.00103647		-0.00229000		-0.00078749	
O		0.12357784		5.53864933		2.17906963		 0.00103647		 0.00229000		 0.00078749	
O		9.65343718		1.07850953		0.09303040		 0.00337826		-0.00076739		 0.00030590	
O		-1.51937054		11.45536649		7.42097121		-0.00337826		 0.00076739		-0.00030590	
O		-0.29240349		7.43266989		3.30489057		 0.00149047		 0.00230936		-0.00129146	
O		8.42647013		5.10120613		4.20910892		-0.00149047		-0.00230936		 0.00129146	
O		1.35807613		-0.34676864		8.46874801		 0.00360316		-0.00048147		-0.00597546	
O		6.77599050		12.88064465		-0.95474746		-0.00360316		 0.00048147		 0.00597546	
O		5.54902345		7.12002426		4.72666305		-0.00111580		 0.00293995		-0.00255773	
O		2.58504318		5.41385387		2.78733750		 0.00111580		-0.00293995		 0.00255773	
O		2.03629998		0.91653325		0.53018455		-0.00326042		 0.00210060		 0.00080111	
O		6.09776666		11.61734382		6.98381494		 0.00326042		-0.00210060		-0.00080111	
O		7.32473264		7.40574778		2.89795986		-0.00142106		-0.00242795		 0.00160954	
O		0.80933293		5.12812929		4.61604069		 0.00142106		 0.00242795		-0.00160954	
O		2.21259335		2.25358797		6.45057151		 0.00223734		-0.00023953		 0.00199025	
O		5.92147434		10.28028911		1.06342904		-0.00223734		 0.00023953		-0.00199025	
O		4.69450729		9.19423139		5.99690855		-0.00092967		 0.00193452		 0.00043740	
O		3.43956040		3.33964462		1.51709200		 0.00092967		-0.00193452		-0.00043740	
O		8.35511654		0.37495389		4.97102138		 0.00095398		 0.00292101		 0.00129569	
O		-0.22104990		12.15892212		2.54297917		-0.00095398		-0.00292101		-0.00129569	
O		-1.44801695		6.73098939		8.17115851		 0.00007305		-0.00816374		-0.00187621	
O		9.58208359		5.80288557		-0.65715796		-0.00007305		 0.00816374		 0.00187621	
O		-0.84821948		2.49627445		5.66351573		 0.00100964		-0.00041925		-0.00427468	
O		8.98228717		10.03760263		1.85048482		-0.00100964		 0.00041925		 0.00427468	
O		7.75532012		9.19119476		6.74562094		 0.00044950		 0.00287536		 0.00063819	
O		0.37874651		3.34268126		0.76837961		-0.00044950		-0.00287536		-0.00063819	
O		8.86703150		2.92864494		2.99553357		 0.00216709		 0.00075068		-0.00030177	
O		-0.73296592		9.60523213		4.51846698		-0.00216709		-0.00075068		 0.00030177	
O		0.49400112		10.33322381		-0.35772298		 0.00381791		-0.00251553		-0.00296754	
O		7.64006445		2.20065220		7.87172353		-0.00381791		 0.00251553		 0.00296754	
H		-1.20765983		1.78284656		5.42639642		-0.00079236		 0.00286502		 0.00025349	
H		9.34172647		10.75102946		2.08760307		 0.00079236		-0.00286502		-0.00025349	
H		8.11475942		8.36240955		7.22949253		-0.00012306		-0.00291696		 0.00047034	
H		0.01930722		4.17146540		0.28450802		 0.00012306		 0.00291696		-0.00047034	
H		8.69894806		2.22552871		3.60399521		 0.00094886		-0.00164580		 0.00212574	
H		-0.56488143		10.30834731		3.91000640		-0.00094886		 0.00164580		-0.00212574	
H		0.66208562		9.79298595		-0.76724563		-0.00192806		-0.00122832		 0.00249298	
H		7.47198101		2.74089112		8.28124724		 0.00192806		 0.00122832		-0.00249298	
