# total energy = -117571.783778 eV	

CRYSTAL	
PRIMVEC	
		10.58799967		0.00000000		0.00000000	
		0.00000000		14.09700041		2.25551922	
		-2.45393833		1.56312757		9.76951553	
PRIMCOORD
   156 1	
Si		8.18330189		0.12986182		0.72664277		-0.00139920		-0.00160859		-0.00307166	
Si		-0.04923632		15.53026192		11.29839727		 0.00139920		 0.00160859		 0.00307166	
Si		1.17773073		7.72811214		5.29034274		 0.00008653		 0.00197522		-0.00263940	
Si		6.95633484		7.93201054		6.73469730		-0.00008653		-0.00197522		 0.00263940	
Si		3.61492732		3.72624425		7.00829122		 0.00020041		 0.00079850		-0.00312763	
Si		4.51914037		11.93387949		5.01674989		-0.00020041		-0.00079850		 0.00312763	
Si		3.29217333		11.01365102		9.62922348		-0.00178653		 0.00073771		-0.00076757	
Si		4.84189437		4.64647166		2.39581657		 0.00178653		-0.00073771		 0.00076757	
Si		1.21183891		2.43623626		4.45221045		 0.00038221		-0.00057770		 0.00209170	
Si		6.92222666		13.22388748		7.57282959		-0.00038221		 0.00057770		-0.00209170	
Si		8.14919371		8.93217205		2.12644515		 0.00243735		-0.00071712		 0.00110539	
Si		-0.01512708		6.72795063		9.89859595		-0.00243735		 0.00071712		-0.00110539	
Si		6.86524205		2.63425303		5.87610900		-0.00044252		-0.00021504		-0.00185905	
Si		1.26882459		13.02587071		6.14893210		 0.00044252		 0.00021504		 0.00185905	
Si		0.04185754		10.23609797		10.46227882		-0.00074213		 0.00042891		-0.00158302	
Si		8.09220909		5.42402471		1.56276228		 0.00074213		-0.00042891		 0.00158302	
Mg		4.06703279		0.78156167		4.88475988		0.00000000		0.00000000		0.00000000	
Mg		5.29399984		7.04850020		1.12775961		0.00000000		0.00000000		0.00000000	
Mg		4.39572559		3.01714897		3.87536988		-0.00010411		-0.00153663		-0.00284258	
Mg		3.73834104		12.64297371		8.14967123		 0.00010411		 0.00153663		 0.00284258	
Mg		4.96530809		9.73304729		2.92437163		-0.00051258		 0.00286764		 0.00222843	
Mg		3.16875854		5.92707539		9.10066842		 0.00051258		-0.00286764		-0.00222843	
Mg		5.29399984		0.00000000		0.00000000		0.00000000		0.00000000		0.00000000	
Mg		4.06703279		7.83006187		6.01251949		0.00000000		0.00000000		0.00000000	
Mg		6.19165257		0.49331502		2.86945379		-0.00024600		-0.00305744		-0.00347321	
Mg		1.94241301		15.16680766		9.15558625		 0.00024600		 0.00305744		 0.00347321	
Mg		3.16938006		7.40694846		3.15429851		 0.00104546		 0.00247195		 0.00074075	
Mg		4.96468552		8.25317422		8.87074048		-0.00104546		-0.00247195		-0.00074075	
Mg		0.42170944		0.24315447		1.48966379		 0.00148670		-0.00129322		 0.00497319	
Mg		7.71235825		15.41696927		10.53537520		-0.00148670		 0.00129322		-0.00497319	
Mg		8.93932424		7.59677541		4.52443437		-0.00047533		-0.00079679		 0.00052560	
Mg		-0.80525761		8.06334727		7.50060567		 0.00047533		 0.00079679		-0.00052560	
Mg		-0.86838750		0.99708040		6.20169952		 0.00578866		-0.00372847		-0.00027032	
Mg		9.00245519		14.66304334		5.82334053		-0.00578866		 0.00372847		 0.00027032	
Mg		7.77548814		8.40597282		9.58191947		-0.00086679		-0.00102317		 0.00582126	
Mg		0.35857849		7.25414986		2.44312057		 0.00086679		 0.00102317		-0.00582126	
Mg		3.19404057		0.37582422		2.11109043		-0.00197012		 0.00042230		-0.00462816	
Mg		4.94002607		15.28429951		9.91394961		 0.00197012		-0.00042230		 0.00462816	
Mg		6.16699311		7.53233579		3.91392502		-0.00048705		-0.00090229		 0.00068590	
Mg		1.96707352		8.12778795		8.11111609		 0.00048705		 0.00090229		-0.00068590	
Mg		6.57114024		2.58886227		1.59091366		 0.00028420		-0.00144067		 0.00430326	
Mg		1.56292640		13.07126147		10.43412639		-0.00028420		 0.00144067		-0.00430326	
Mg		2.78989239		10.03248756		5.18821301		 0.00232982		 0.00000678		-0.00024333	
Mg		5.34417319		5.62763512		6.83682809		-0.00232982		-0.00000678		 0.00024333	
Mg		-1.63791484		3.95497999		9.86387473		 0.00092782		-0.00067119		 0.00150200	
Mg		9.77198042		11.70514269		2.16116638		-0.00092782		 0.00067119		-0.00150200	
Mg		8.54501337		10.31661230		6.69871187		 0.00086747		-0.00064462		-0.00173376	
Mg		-0.41094780		5.34351038		5.32632923		-0.00086747		 0.00064462		 0.00173376	
Mg		0.46893509		3.67341014		7.74606515		 0.00130267		 0.00082744		 0.00292682	
Mg		7.66513154		11.98671255		4.27897595		-0.00130267		-0.00082744		-0.00292682	
Mg		6.43816449		10.71575130		8.83533315		 0.00048355		-0.00020524		 0.00418387	
Mg		1.69590108		4.94437138		3.18970796		-0.00048355		 0.00020524		-0.00418387	
Mg		6.00405545		3.87886180		9.13916638		-0.00049862		 0.00030385		 0.00020254	
Mg		2.13001119		11.78126088		2.88587260		 0.00049862		-0.00030385		-0.00020254	
Mg		0.90304414		10.47449420		7.43650063		-0.00117790		 0.00000209		-0.00034556	
Mg		7.23102249		5.18562954		4.58853942		 0.00117790		-0.00000209		 0.00034556	
Mg		3.60529224		2.44682743		0.82081773		 0.00137831		 0.00264908		 0.00207623	
Mg		4.52877334		13.21329525		11.20422231		-0.00137831		-0.00264908		-0.00207623	
Mg		5.75574038		10.13589526		5.95212766		-0.00175443		-0.00359088		-0.00216684	
Mg		2.37832519		5.52422636		6.07291238		 0.00175443		 0.00359088		 0.00216684	
Mg		9.40458318		2.81299752		2.34273045		-0.00282317		 0.00046912		 0.00021184	
Mg		-1.27051655		12.84712516		9.68230959		 0.00282317		-0.00046912		-0.00021184	
Mg		-0.04354950		10.02149828		4.47049910		-0.00371196		-0.00065102		-0.00319737	
Mg		8.17761719		5.63862334		7.55454200		 0.00371196		 0.00065102		 0.00319737	
O		3.63390525		2.10676206		6.71128618		-0.00290513		 0.00762282		 0.00367025	
O		4.50016138		13.55336062		5.31375387		 0.00290513		-0.00762282		-0.00367025	
O		3.27319539		9.40661184		9.40998518		 0.00011438		 0.00070180		-0.00202161	
O		4.86087230		6.25351190		2.61505592		-0.00011438		-0.00070180		 0.00202161	
O		5.72267194		1.94609763		4.70268441		-0.00569860		 0.00220860		-0.00031422	
O		2.41139469		13.71402505		7.32235564		 0.00569860		-0.00220860		 0.00031422	
O		3.63836068		8.33402207		1.70184519		-0.00327610		-0.00120030		-0.00183347	
O		4.49570490		7.32610061		10.32319592		 0.00327610		 0.00120030		 0.00183347	
O		6.88739955		4.27832373		6.13535194		 0.00202793		 0.00423353		 0.00398577	
O		1.24666708		11.38179895		5.88968811		-0.00202793		-0.00423353		-0.00398577	
O		0.01970003		11.88142018		10.72933782		 0.00152205		 0.00118223		 0.00134320	
O		8.11436554		3.77870250		1.29570222		-0.00152205		-0.00118223		-0.00134320	
O		6.50173167		2.34888314		7.31452793		 0.00009161		 0.00265738		-0.00324652	
O		1.63233497		13.31123954		4.71051317		-0.00009161		-0.00265738		 0.00324652	
O		0.40536792		9.46334658		8.85456095		-0.00258855		-0.00148820		-0.00157341	
O		7.72869871		6.19677716		3.17048015		 0.00258855		 0.00148820		 0.00157341	
O		1.23586097		4.08269350		4.69803310		 0.00115296		-0.00053621		-0.00062583	
O		6.89820461		11.57742918		7.32700801		-0.00115296		 0.00053621		 0.00062583	
O		8.12517166		10.58441246		2.40841523		 0.00235645		 0.00061436		 0.00396443	
O		0.00889392		5.07571022		9.61662588		-0.00235645		-0.00061436		-0.00396443	
O		2.73335141		1.83403848		3.95080832		 0.00059976		-0.00212344		-0.00063370	
O		5.40071417		13.82608314		8.07423279		-0.00059976		 0.00212344		 0.00063370	
O		6.62768122		8.46299661		2.45642757		 0.00069503		 0.00198876		-0.00175352	
O		1.50638648		7.19712607		9.56861142		-0.00069503		-0.00198876		 0.00175352	
O		0.80050677		2.13696115		5.87840871		 0.00443224		 0.00203630		 0.00319601	
O		7.33355880		13.52316153		6.14663133		-0.00443224		-0.00203630		-0.00319601	
O		6.10659175		9.71192211		10.29654381		-0.00170475		 0.00116978		-0.00016956	
O		2.02747382		5.94820163		1.72849730		 0.00170475		-0.00116978		 0.00016956	
O		0.07524997		1.73761145		3.29662558		 0.00017041		 0.00193808		 0.00093085	
O		8.05881560		13.92251017		8.72841447		-0.00017041		-0.00193808		-0.00093085	
O		9.28578265		8.57634114		3.11331660		 0.00085755		-0.00355988		 0.00075742	
O		-1.15171602		7.08378154		8.91172345		-0.00085755		 0.00355988		-0.00075742	
O		3.98348606		4.22896671		5.71526352		 0.00099891		 0.00197200		 0.00089026	
O		4.15057952		11.43115597		6.30977653		-0.00099891		-0.00197200		-0.00089026	
O		2.92361247		11.96742968		11.15529093		-0.00127936		 0.00226783		-0.00160920	
O		5.21045311		3.69269406		0.86975017		 0.00127936		-0.00226783		 0.00160920	
O		4.65489441		4.58199921		8.15350832		-0.00296154		-0.00033645		 0.00097838	
O		3.47917116		11.07812347		3.87153173		 0.00296154		 0.00033645		-0.00097838	
O		2.25220517		11.53827476		8.70486676		 0.00062197		 0.00032229		-0.00280952	
O		5.88186146		4.12184898		3.32017435		-0.00062197		-0.00032229		 0.00280952	
O		4.87379495		1.46866779		1.87327867		-0.00005280		 0.00012476		 0.00443900	
O		3.26027062		14.19145489		10.15176032		 0.00005280		-0.00012476		-0.00443900	
O		4.48723767		8.76070257		4.52313099		-0.00146930		-0.00404689		-0.00182392	
O		3.64682896		6.89942117		7.50191011		 0.00146930		 0.00404689		 0.00182392	
O		4.67919493		2.56473434		9.64229119		 0.00235727		-0.00178263		 0.00112295	
O		3.45487170		13.09538940		2.38274886		-0.00235727		 0.00178263		-0.00112295	
O		2.22790466		8.92608501		6.47537072		 0.00280899		 0.00052935		-0.00028884	
O		5.90616198		6.73403767		5.54966932		-0.00280899		-0.00052935		 0.00028884	
O		7.85626399		1.40977945		2.31222219		 0.00021914		-0.00116504		-0.00343530	
O		0.27780158		14.25034323		9.71281891		-0.00021914		 0.00116504		 0.00343530	
O		1.50476863		8.55456798		4.04178358		 0.00145281		-0.00139918		 0.00005562	
O		6.62929800		7.10555576		7.98325646		-0.00145281		 0.00139918		-0.00005562	
O		-1.10338921		2.29141254		8.19159124		 0.00084955		-0.00425437		 0.00142588	
O		9.23745584		13.36870909		3.83344987		-0.00084955		 0.00425437		-0.00142588	
O		8.01048880		9.11482246		7.91253921		-0.00139778		-0.00123145		 0.00096025	
O		0.12357784		6.54530023		4.11250189		 0.00139778		 0.00123145		-0.00096025	
O		9.65343718		1.16573241		0.45210864		-0.00168835		 0.00226422		 0.00051596	
O		-1.51937054		14.49439027		11.57293140		 0.00168835		-0.00226422		-0.00051596	
O		-0.29240349		8.90857034		5.91949015		-0.00223263		-0.00216065		-0.00089754	
O		8.42647013		6.75155128		6.10554989		 0.00223263		 0.00216065		 0.00089754	
O		1.35807613		2.41620800		8.79985805		 0.00181720		 0.00284537		 0.00184287	
O		6.77599050		13.24391469		3.22518305		-0.00181720		-0.00284537		-0.00184287	
O		5.54902345		9.04641657		7.31329337		-0.00351419		 0.00114720		 0.00361487	
O		2.58504318		6.61370717		4.71174668		 0.00351419		-0.00114720		-0.00361487	
O		2.03629998		1.13880925		0.85904041		 0.00290728		-0.00150131		-0.00167911	
O		6.09776666		14.52131344		11.16600069		-0.00290728		 0.00150131		 0.00167911	
O		7.32473264		8.74659512		5.48233494		 0.00169662		 0.00242967		-0.00097709	
O		0.80933293		6.91352862		6.54270617		-0.00169662		-0.00242967		 0.00097709	
O		2.21259335		4.49041725		7.52961256		 0.00074797		 0.00145430		-0.00073839	
O		5.92147434		11.16970543		4.49542749		-0.00074797		-0.00145430		 0.00073839	
O		4.69450729		11.64677211		9.33146987		-0.00196702		-0.00120268		-0.00205812	
O		3.43956040		4.01335057		2.69357123		 0.00196702		 0.00120268		 0.00205812	
O		8.35511654		2.02717524		5.35536153		 0.00108055		-0.00726347		-0.00062279	
O		-0.22104990		13.63294744		6.66967852		-0.00108055		 0.00726347		 0.00062279	
O		-1.44801695		9.76813909		10.81102000		-0.00041881		 0.00357466		-0.00188035	
O		9.58208359		5.89198465		1.21402110		 0.00041881		-0.00357466		 0.00188035	
O		-0.84821948		4.48737955		6.78090016		-0.00003440		 0.00123410		 0.00004782	
O		8.98228717		11.17274313		5.24414095		 0.00003440		-0.00123410		-0.00004782	
O		7.75532012		11.88945753		10.11852565		-0.00079814		 0.00025841		 0.00282167	
O		0.37874651		3.77066515		1.90651546		 0.00079814		-0.00025841		-0.00282167	
O		8.86703150		4.06628633		4.11472326		-0.00415936		-0.00267189		 0.00210491	
O		-0.73296592		11.59383635		7.91031785		 0.00415936		 0.00267189		-0.00210491	
O		0.49400112		10.75870681		3.01698592		-0.00172905		 0.00029039		 0.00010136	
O		7.64006445		4.90141693		9.00805518		 0.00172905		-0.00029039		-0.00010136	
H		-1.20765983		3.65859541		6.29702751		 0.00083094		-0.00149412		-0.00074502	
H		9.34172647		12.00152727		5.72801253		-0.00083094		 0.00149412		 0.00074502	
H		8.11475942		11.17603176		10.35564390		 0.00149139		 0.00229420		 0.00057533	
H		0.01930722		4.48409092		1.66939720		-0.00149139		-0.00229420		-0.00057533	
H		8.69894806		3.52604741		4.52424697		 0.00215429		-0.00105943		-0.00220171	
H		-0.56488143		12.13407527		7.50079414		-0.00215429		 0.00105943		 0.00220171	
H		0.66208562		10.05558952		2.40852640		-0.00196506		-0.00134888		-0.00210734	
H		7.47198101		5.60453316		9.61651470		 0.00196506		 0.00134888		 0.00210734	
