# total energy = -117600.171038 eV	

CRYSTAL	
PRIMVEC	
		10.58799967		0.00000000		0.00000000	
		0.00000000		14.09700041		0.56388510	
		-2.45393833		0.39078189		9.76951553	
PRIMCOORD
   156 1	
Si		8.18330189		0.04293222		0.72496775		-0.00000116		 0.00000196		 0.00005542	
Si		-0.04923632		14.44484902		9.60843182		 0.00000116		-0.00000196		-0.00005542	
Si		1.17773073		7.22886995		4.44284854		 0.00016991		-0.00011548		 0.00017587	
Si		6.95633484		7.25891129		5.89055209		-0.00016991		 0.00011548		-0.00017587	
Si		3.61492732		2.93657642		6.68748753		-0.00010101		-0.00070125		-0.00008280	
Si		4.51914037		11.55120377		3.64591310		 0.00010101		 0.00070125		 0.00008280	
Si		3.29217333		10.04480352		8.46260168		 0.00007717		 0.00023646		-0.00027100	
Si		4.84189437		4.44297666		1.87079896		-0.00007717		-0.00023646		 0.00027100	
Si		1.21183891		1.93593845		4.23990941		 0.00007211		-0.00004168		 0.00001042	
Si		6.92222666		12.55184173		6.09349122		-0.00007211		 0.00004168		-0.00001042	
Si		8.14919371		8.84629808		1.06832387		 0.00007221		-0.00005666		-0.00017216	
Si		-0.01512708		5.64148316		9.26507676		-0.00007221		 0.00005666		 0.00017216	
Si		6.86524205		1.96249950		5.66747882		-0.00034119		-0.00019761		-0.00001876	
Si		1.26882459		12.52528068		4.66592181		 0.00034119		 0.00019761		 0.00001876	
Si		0.04185754		9.14933722		9.40782841		 0.00007435		 0.00040573		-0.00021580	
Si		8.09220909		5.33844402		0.92557223		-0.00007435		-0.00040573		 0.00021580	
Mg		4.06703279		0.19538989		4.88475988		0.00000000		0.00000000		0.00000000	
Mg		5.29399984		7.04850020		0.28194043		0.00000000		0.00000000		0.00000000	
Mg		4.39572559		2.59933804		3.58016162		 0.00022679		-0.00012749		 0.00018588	
Mg		3.73834104		11.88844214		6.75323901		-0.00022679		 0.00012749		-0.00018588	
Mg		4.96530809		9.56468750		1.78334420		 0.00052018		-0.00007404		-0.00016808	
Mg		3.16875854		4.92309268		8.55005644		-0.00052018		 0.00007404		 0.00016808	
Mg		5.29399984		0.00000000		0.00000000		0.00000000		0.00000000		0.00000000	
Mg		4.06703279		7.24389009		5.16670032		0.00000000		0.00000000		0.00000000	
Mg		6.19165257		0.14965502		2.86524083		 0.00022924		-0.00006640		-0.00008816	
Mg		1.94241301		14.33812516		7.46815981		-0.00022924		 0.00006640		 0.00008816	
Mg		3.16938006		7.16443774		2.30426743		-0.00021652		 0.00007696		 0.00002562	
Mg		4.96468552		7.32334138		8.02913426		 0.00021652		-0.00007696		-0.00002562	
Mg		0.42170944		0.06448939		1.48907192		 0.00010565		-0.00022155		 0.00009701	
Mg		7.71235825		14.42329185		8.84432765		-0.00010565		 0.00022155		-0.00009701	
Mg		8.93932424		7.18926872		3.67802333		 0.00001517		-0.00018846		-0.00010530	
Mg		-0.80525761		7.29851146		6.65537731		-0.00001517		 0.00018846		 0.00010530	
Mg		-0.86838750		0.25296955		6.20110765		 0.00010680		-0.00005427		 0.00067205	
Mg		9.00245519		14.23481063		4.13229298		-0.00010680		 0.00005427		-0.00067205	
Mg		7.77548814		7.39156833		8.73550737		-0.00021721		 0.00022848		-0.00022819	
Mg		0.35857849		7.09621185		1.59789326		 0.00021721		-0.00022848		 0.00022819	
Mg		3.19404057		0.12324220		2.10640524		 0.00027644		-0.00005562		-0.00008143	
Mg		4.94002607		14.36453798		8.22699539		-0.00027644		 0.00005562		 0.00008143	
Mg		6.16699311		7.19874604		3.06341853		 0.00014258		-0.00018034		 0.00004249	
Mg		1.96707352		7.28903520		7.26998210		-0.00014258		 0.00018034		-0.00004249	
Mg		6.57114024		2.44394855		1.30343570		 0.00020309		 0.00010578		-0.00007825	
Mg		1.56292640		12.04383163		9.02996387		-0.00020309		-0.00010578		 0.00007825	
Mg		2.78989239		9.59122950		4.05491588		-0.00021688		-0.00025065		-0.00009005	
Mg		5.34417319		4.89655068		6.27848475		 0.00021688		 0.00025065		 0.00009005	
Mg		-1.63791484		2.81814752		9.57116948		-0.00027549		-0.00019079		-0.00036608	
Mg		9.77198042		11.66963266		0.76223116		 0.00027549		 0.00019079		 0.00036608	
Mg		8.54501337		9.69493049		5.56018638		 0.00008130		 0.00014320		-0.00013278	
Mg		-0.41094780		4.79284969		4.77321319		-0.00008130		-0.00014320		 0.00013278	
Mg		0.46893509		2.79184375		7.44630617		-0.00000908		-0.00002715		-0.00009926	
Mg		7.66513154		11.69593643		2.88709446		 0.00000908		 0.00002715		 0.00009926	
Mg		6.43816449		9.83880446		7.68975393		-0.00029532		 0.00020731		-0.00018878	
Mg		1.69590108		4.64897572		2.64364670		 0.00029532		-0.00020731		 0.00018878	
Mg		6.00405545		2.82977844		8.84155677		-0.00017521		-0.00005063		-0.00006698	
Mg		2.13001119		11.65800068		1.49184386		 0.00017521		 0.00005063		 0.00006698	
Mg		0.90304414		9.76506222		6.29307078		 0.00009714		-0.00004012		 0.00017569	
Mg		7.23102249		4.72271902		4.04032985		-0.00009714		 0.00004012		-0.00017569	
Mg		3.60529224		2.39395520		0.53565855		-0.00010807		 0.00017786		-0.00019543	
Mg		4.52877334		12.09382604		9.79774208		 0.00010807		-0.00017786		 0.00019543	
Mg		5.75574038		9.60259678		4.82114824		-0.00025435		-0.00000359		-0.00020590	
Mg		2.37832519		4.88518340		5.51225133		 0.00025435		 0.00000359		 0.00020590	
Mg		9.40458318		2.57991223		2.04246537		 0.00013701		 0.00014674		 0.00024541	
Mg		-1.27051655		11.90786795		8.29093526		-0.00013701		-0.00014674		-0.00024541	
Mg		-0.04354950		9.66841284		3.32441273		 0.00000602		-0.00037938		-0.00033386	
Mg		8.17761719		4.81936734		7.00898791		-0.00000602		 0.00037938		 0.00033386	
O		3.63390525		1.32176141		6.58407454		-0.00002719		 0.00052802		-0.00013226	
O		4.50016138		13.16601877		3.74932609		 0.00002719		-0.00052802		 0.00013226	
O		3.27319539		8.43309821		8.43695331		 0.00001784		 0.00002478		-0.00006244	
O		4.86087230		6.05468197		1.89644733		-0.00001784		-0.00002478		 0.00006244	
O		5.72267194		1.40529649		4.55568062		-0.00010543		-0.00017245		-0.00028581	
O		2.41139469		13.08248369		5.77772001		 0.00010543		 0.00017245		 0.00028581	
O		3.63836068		8.28865249		0.70902222		-0.00059213		-0.00012012		-0.00012624	
O		4.49570490		6.19912769		9.62437841		 0.00059213		 0.00012012		 0.00012624	
O		6.88739955		3.60704138		5.72935932		 0.00020061		 0.00011038		-0.00021737	
O		1.24666708		10.88073986		4.60404237		-0.00020061		-0.00011038		 0.00021737	
O		0.01970003		10.79418932		9.47752497		 0.00026574		 0.00035701		 0.00054340	
O		8.11436554		3.69359086		0.85587566		-0.00026574		-0.00035701		-0.00054340	
O		6.50173167		1.49436274		7.16938445		 0.00009116		 0.00008149		 0.00042714	
O		1.63233497		12.99341744		3.16401618		-0.00009116		-0.00008149		-0.00042714	
O		0.40536792		8.55935376		7.86359724		 0.00054417		-0.00028067		-0.00007327	
O		7.72869871		5.92842642		2.46980339		-0.00054417		 0.00028067		 0.00007327	
O		1.23586097		3.58456517		4.28780952		 0.00013206		 0.00025094		 0.00016099	
O		6.89820461		10.90321607		6.04559111		-0.00013206		-0.00025094		-0.00016099	
O		8.12517166		10.49637006		1.15237247		 0.00015773		-0.00015243		 0.00031689	
O		0.00889392		3.99141118		9.18102922		-0.00015773		 0.00015243		-0.00031689	
O		2.73335141		1.38362497		3.80278914		-0.00002401		 0.00002986		 0.00036663	
O		5.40071417		13.10415521		6.53061149		 0.00002401		-0.00002986		-0.00036663	
O		6.62768122		8.32723939		1.46259028		 0.00034028		-0.00044766		 0.00036715	
O		1.50638648		6.16054079		8.87081036		-0.00034028		 0.00044766		-0.00036715	
O		0.80050677		1.45512679		5.73106717		-0.00023029		 0.00004936		-0.00014953	
O		7.33355880		13.03265339		4.60233240		 0.00023029		-0.00004936		 0.00014953	
O		6.10659175		8.63524219		9.30338202		 0.00007506		 0.00008182		-0.00033798	
O		2.02747382		5.85253905		1.03001861		-0.00007506		-0.00008182		 0.00033798	
O		0.07524997		1.36586149		3.14759313		-0.00019749		 0.00001852		 0.00024007	
O		8.05881560		13.12191764		7.18580750		 0.00019749		-0.00001852		-0.00024007	
O		9.28578265		8.36191933		2.11846286		-0.00023031		-0.00009237		 0.00018194	
O		-1.15171602		6.12586085		8.21493778		 0.00023031		 0.00009237		-0.00018194	
O		3.98348606		3.60844640		5.30707072		-0.00007030		 0.00011284		 0.00005420	
O		4.15057952		10.87933484		5.02632885		 0.00007030		-0.00011284		-0.00005420	
O		2.92361247		10.82943677		9.90127790		 0.00012010		-0.00037005		-0.00003183	
O		5.21045311		3.65834341		0.43212168		-0.00012010		 0.00037005		 0.00003183	
O		4.65489441		3.66815743		7.74988318		 0.00009843		 0.00005462		-0.00005035	
O		3.47917116		10.81962275		2.58351745		-0.00009843		-0.00005462		 0.00005035	
O		2.25220517		10.69360120		7.45542032		-0.00002778		 0.00040229		 0.00002469	
O		5.88186146		3.79417898		2.87797925		 0.00002778		-0.00040229		-0.00002469	
O		4.87379495		1.26690816		1.72932105		-0.00010888		 0.00034757		 0.00052642	
O		3.26027062		13.22087308		8.60407959		 0.00010888		-0.00034757		-0.00052642	
O		4.48723767		8.37629148		3.53335208		-0.00002533		 0.00025054		 0.00008472	
O		3.64682896		6.11148870		6.80004856		 0.00002533		-0.00025054		-0.00008472	
O		4.67919493		1.42779599		9.51643375		-0.00009135		-0.00006714		 0.00053205	
O		3.45487170		13.05998419		0.81696688		 0.00009135		 0.00006714		-0.00053205	
O		2.22790466		8.30450908		5.50369305		-0.00003525		 0.00032338		 0.00023684	
O		5.90616198		6.18327216		4.82970758		 0.00003525		-0.00032338		-0.00023684	
O		7.85626399		1.15280235		2.18416457		 0.00008000		 0.00035812		 0.00047568	
O		0.27780158		13.33497889		8.14923606		-0.00008000		-0.00035812		-0.00047568	
O		1.50476863		8.22537331		3.06790679		 0.00004705		-0.00051486		-0.00011528	
O		6.62929800		6.26240687		7.26549385		-0.00004705		 0.00051486		 0.00011528	
O		-1.10338921		1.32774786		8.07080651		 0.00027079		-0.00003660		-0.00000742	
O		9.23745584		13.16003232		2.26259306		-0.00027079		 0.00003660		 0.00000742	
O		8.01048880		8.31997497		6.94593531		-0.00023106		 0.00012208		-0.00000141	
O		0.12357784		6.16780627		3.38746532		 0.00023106		-0.00012208		 0.00000141	
O		9.65343718		1.13302396		0.31745364		-0.00008279		-0.00014848		 0.00025325	
O		-1.51937054		13.35475622		10.01594699		 0.00008279		 0.00014848		-0.00025325	
O		-0.29240349		8.35510913		4.93901597		 0.00036672		-0.00018978		-0.00033880	
O		8.42647013		6.13267211		5.39438466		-0.00036672		 0.00018978		 0.00033880	
O		1.35807613		1.38009176		8.67569152		 0.00014932		 0.00021011		-0.00000951	
O		6.77599050		13.10768842		1.65770911		-0.00014932		-0.00021011		 0.00000951	
O		5.54902345		8.32401852		6.34330660		-0.00009029		 0.00041103		 0.00006949	
O		2.58504318		6.16376166		3.99009403		 0.00009029		-0.00041103		-0.00006949	
O		2.03629998		1.05545628		0.73571986		-0.00013272		 0.00015040		-0.00009430	
O		6.09776666		13.43232496		9.59768077		 0.00013272		-0.00015040		 0.00009430	
O		7.32473264		8.24377631		4.51319415		-0.00007042		-0.00023130		-0.00009562	
O		0.80933293		6.24400387		5.82020542		 0.00007042		 0.00023130		 0.00009562	
O		2.21259335		3.65160627		7.12497203		-0.00029294		-0.00000019		 0.00019206	
O		5.92147434		10.83617497		3.20842860		 0.00029294		 0.00000019		-0.00019206	
O		4.69450729		10.72706987		8.08100911		 0.00004996		 0.00035512		 0.00030344	
O		3.43956040		3.76071137		2.25239152		-0.00004996		-0.00035512		-0.00030344	
O		8.35511654		1.40759197		5.21123450		-0.00046779		 0.00030318		 0.00014391	
O		-0.22104990		13.08018821		5.12216613		 0.00046779		-0.00030318		-0.00014391	
O		-1.44801695		8.62920809		9.82107168		 0.00045706		 0.00015251		 0.00051176	
O		9.58208359		5.85857315		0.51232895		-0.00045706		-0.00015251		-0.00051176	
O		-0.84821948		3.74071487		6.36188113		-0.00013045		 0.00047100		 0.00061616	
O		8.98228717		10.74706531		3.97151950		 0.00013045		-0.00047100		-0.00061616	
O		7.75532012		10.87761005		8.85368533		-0.00011078		-0.00005562		 0.00010192	
O		0.37874651		3.61017119		1.47971425		 0.00011078		 0.00005562		-0.00010192	
O		8.86703150		3.63967042		3.69502660		-0.00005065		-0.00012016		-0.00010494	
O		-0.73296592		10.84810977		6.63837404		 0.00005065		 0.00012016		 0.00010494	
O		0.49400112		10.59915095		1.75147008		 0.00037434		 0.00018111		 0.00013473	
O		7.64006445		3.88863029		8.58192949		-0.00037434		-0.00018111		-0.00013473	
H		-1.20765983		2.95519012		5.97054231		-0.00044624		-0.00019172		 0.00051784	
H		9.34172647		11.53259112		4.36285938		 0.00044624		 0.00019172		-0.00051784	
H		8.11475942		10.12092383		9.18333634		 0.00013591		 0.00021061		-0.00039927	
H		0.01930722		4.36685635		1.15006323		-0.00013591		-0.00021061		 0.00039927	
H		8.69894806		3.03835250		4.17915229		-0.00007218		-0.00018804		-0.00000720	
H		-0.56488143		11.44942768		6.15424834		 0.00007218		 0.00018804		 0.00000720	
H		0.66208562		9.95711371		1.21761043		 0.00029077		 0.00005142		 0.00005061	
H		7.47198101		4.53066647		9.11579020		-0.00029077		-0.00005142		-0.00005061	
