# total energy = -117579.102717 eV	

CRYSTAL	
PRIMVEC	
		10.58799967		0.00000000		0.00000000	
		0.00000000		14.09700041		-1.69164471	
		-2.45393833		-1.17234568		9.76951553	
PRIMCOORD
   156 1	
Si		8.18330189		-0.07297249		0.72273474		-0.00008974		-0.00024560		 0.00028588	
Si		-0.04923632		12.99763040		7.35514456		 0.00008974		 0.00024560		-0.00028588	
Si		1.17773073		6.56321406		3.31285592		 0.00015308		-0.00013571		-0.00002650	
Si		6.95633484		6.36144385		4.76502443		-0.00015308		 0.00013571		 0.00002650	
Si		3.61492732		1.88368879		6.25975034		-0.00017578		 0.00036126		 0.00024600	
Si		4.51914037		11.04096912		1.81813001		 0.00017578		-0.00036126		-0.00024600	
Si		3.29217333		8.75300721		6.90710488		-0.00028244		-0.00004578		-0.00004563	
Si		4.84189437		4.17164964		1.17077548		 0.00028244		 0.00004578		 0.00004563	
Si		1.21183891		1.26887647		3.95684136		-0.00014399		-0.00043528		-0.00023686	
Si		6.92222666		11.65578144		4.12103900		 0.00014399		 0.00043528		 0.00023686	
Si		8.14919371		8.73179839		-0.34250273		-0.00008389		-0.00003237		-0.00019740	
Si		-0.01512708		4.19285740		8.42038414		 0.00008389		 0.00003237		 0.00019740	
Si		6.86524205		1.06683096		5.38930560		 0.00003792		-0.00007527		-0.00008731	
Si		1.26882459		11.85782694		2.68857476		-0.00003792		 0.00007527		 0.00008731	
Si		0.04185754		7.70032182		8.00189558		 0.00007270		-0.00007800		-0.00024992	
Si		8.09220909		5.22433609		0.07598478		-0.00007270		 0.00007800		 0.00024992	
Mg		4.06703279		-0.58617072		4.88475988		0.00000000		0.00000000		0.00000000	
Mg		5.29399984		7.04850020		-0.84582024		0.00000000		0.00000000		0.00000000	
Mg		4.39572559		2.04225573		3.18655062		-0.00005338		-0.00020247		 0.00038021	
Mg		3.73834104		10.88240112		4.89132868		 0.00005338		 0.00020247		-0.00038021	
Mg		4.96530809		9.34020709		0.26197252		-0.00027737		-0.00015931		-0.00016987	
Mg		3.16875854		3.58444976		7.81590783		 0.00027737		 0.00015931		 0.00016987	
Mg		5.29399984		0.00000000		0.00000000		0.00000000		0.00000000		0.00000000	
Mg		4.06703279		6.46232842		4.03893965		0.00000000		0.00000000		0.00000000	
Mg		6.19165257		-0.30855866		2.85962495		-0.00010093		 0.00036218		 0.00042617	
Mg		1.94241301		13.23321657		5.21825540		 0.00010093		-0.00036218		-0.00042617	
Mg		3.16938006		6.84109082		1.17089088		-0.00007839		 0.00042141		-0.00007760	
Mg		4.96468552		6.08356709		6.90698947		 0.00007839		-0.00042141		 0.00007760	
Mg		0.42170944		-0.17373108		1.48828312		 0.00015526		-0.00019635		-0.00012973	
Mg		7.71235825		13.09838898		6.58959830		-0.00015526		 0.00019635		 0.00012973	
Mg		8.93932424		6.64592752		2.54947279		 0.00008147		-0.00002850		-0.00025746	
Mg		-0.80525761		6.27872933		5.52840756		-0.00008147		 0.00002850		 0.00025746	
Mg		-0.86838750		-0.73917473		6.20031778		 0.00008839		 0.00024207		-0.00075175	
Mg		9.00245519		13.66383264		1.87756151		-0.00008839		-0.00024207		 0.00075175	
Mg		7.77548814		6.03902973		7.60695895		 0.00004737		 0.00020989		-0.00031121	
Mg		0.35857849		6.88562818		0.47092246		-0.00004737		-0.00020989		 0.00031121	
Mg		3.19404057		-0.21353348		2.10015726		 0.00001755		 0.00019008		 0.00019106	
Mg		4.94002607		13.13818927		5.97772415		-0.00001755		-0.00019008		-0.00019106	
Mg		6.16699311		6.75395899		1.92941095		 0.00036312		-0.00018189		-0.00018138	
Mg		1.96707352		6.17069891		6.14846835		-0.00036312		 0.00018189		 0.00018138	
Mg		6.57114024		2.25073132		0.92013317		-0.00023543		-0.00021872		 0.00007306	
Mg		1.56292640		10.67392658		7.15774718		 0.00023543		 0.00021872		-0.00007306	
Mg		2.78989239		9.00288612		2.54385268		 0.00017773		-0.00003114		 0.00004691	
Mg		5.34417319		3.92177073		5.53402767		-0.00017773		 0.00003114		-0.00004691	
Mg		-1.63791484		1.30237161		9.18089687		 0.00016139		 0.00035911		 0.00023654	
Mg		9.77198042		11.62228524		-1.10301651		-0.00016139		-0.00035911		-0.00023654	
Mg		8.54501337		8.86602246		4.04215522		 0.00011291		 0.00063092		-0.00065576	
Mg		-0.41094780		4.05863439		4.03572619		-0.00011291		-0.00063092		 0.00065576	
Mg		0.46893509		1.61642226		7.04662825		-0.00005627		-0.00008411		 0.00000416	
Mg		7.66513154		11.30823459		1.03125317		 0.00005627		 0.00008411		-0.00000416	
Mg		6.43816449		8.66954095		6.16231534		-0.00037469		 0.00008441		 0.00003486	
Mg		1.69590108		4.25511590		1.91556502		 0.00037469		-0.00008441		-0.00003486	
Mg		6.00405545		1.43100310		8.44474290		-0.00024085		 0.00003299		 0.00009708	
Mg		2.13001119		11.49365481		-0.36686254		 0.00024085		-0.00003299		-0.00009708	
Mg		0.90304414		8.81915362		4.76849730		 0.00011425		-0.00011454		 0.00020706	
Mg		7.23102249		4.10550428		3.30938306		-0.00011425		 0.00011454		-0.00020706	
Mg		3.60529224		2.32345924		0.15544560		 0.00013170		 0.00017060		 0.00039363	
Mg		4.52877334		10.60119867		7.92243476		-0.00013170		-0.00017060		-0.00039363	
Mg		5.75574038		8.89153319		3.31317462		-0.00029232		-0.00000582		 0.00041003	
Mg		2.37832519		4.03312472		4.76470467		 0.00029232		 0.00000582		-0.00041003	
Mg		9.40458318		2.26913221		1.64210981		 0.00022303		-0.00009567		-0.00007615	
Mg		-1.27051655		10.65552464		6.43577055		-0.00022303		 0.00009567		 0.00007615	
Mg		-0.04354950		9.19763120		1.79629756		 0.00015738		 0.00011743		 0.00026798	
Mg		8.17761719		3.72702565		6.28158280		-0.00015738		-0.00011743		-0.00026798	
O		3.63390525		0.27509423		6.41446008		 0.00005859		 0.00020026		-0.00006845	
O		4.50016138		12.64956262		1.66342134		-0.00005859		-0.00020026		 0.00006845	
O		3.27319539		7.13508145		7.13957924		-0.00017396		 0.00012179		-0.00000218	
O		4.86087230		5.78957540		0.93830218		 0.00017396		-0.00012179		 0.00000218	
O		5.72267194		0.68422830		4.35967557		 0.00029883		-0.00027463		 0.00020042	
O		2.41139469		12.24042961		3.71820373		-0.00029883		 0.00027463		-0.00020042	
O		3.63836068		8.22816007		-0.61474350		 0.00044352		-0.00040628		-0.00033105	
O		4.49570490		4.69649784		8.69262385		-0.00044352		 0.00040628		 0.00033105	
O		6.88739955		2.71199647		5.18803408		-0.00043282		-0.00015237		 0.00032980	
O		1.24666708		10.21266038		2.88984734		 0.00043282		 0.00015237		-0.00032980	
O		0.01970003		9.34454923		7.80844012		-0.00017202		-0.00004239		-0.00044544	
O		8.11436554		3.58010762		0.26944130		 0.00017202		 0.00004239		 0.00044544	
O		6.50173167		0.35500186		6.97586123		-0.00027427		 0.00006276		 0.00000713	
O		1.63233497		12.56965604		1.10202018		 0.00027427		-0.00006276		-0.00000713	
O		0.40536792		7.35402858		6.54231441		-0.00032762		 0.00022234		-0.00012190	
O		7.72869871		5.57062827		1.53556595		 0.00032762		-0.00022234		 0.00012190	
O		1.23586097		2.92039372		3.74084722		-0.00006439		-0.00023252		 0.00012786	
O		6.89820461		10.00426313		4.33703419		 0.00006439		 0.00023252		-0.00012786	
O		8.12517166		10.37897985		-0.52235155		-0.00007861		 0.00009060		-0.00018390	
O		0.00889392		2.54567806		8.60023191		 0.00007861		-0.00009060		 0.00018390	
O		2.73335141		0.78307257		3.60543094		 0.00009867		 0.00040145		 0.00001414	
O		5.40071417		12.14158322		4.47244941		-0.00009867		-0.00040145		-0.00001414	
O		6.62768122		8.14623013		0.13747247		-0.00017777		 0.00021428		-0.00009320	
O		1.50638648		4.77842672		7.94040894		 0.00017777		-0.00021428		 0.00009320	
O		0.80050677		0.54601361		5.53461213		 0.00025260		-0.00049278		 0.00034900	
O		7.33355880		12.37864218		2.54326929		-0.00025260		 0.00049278		-0.00034900	
O		6.10659175		7.19966931		7.97916526		 0.00009501		-0.00009680		 0.00024652	
O		2.02747382		5.72498754		0.09871510		-0.00009501		 0.00009680		-0.00024652	
O		0.07524997		0.87019593		2.94888073		 0.00005660		-0.00013212		-0.00025845	
O		8.05881560		12.05446092		5.12899857		-0.00005660		 0.00013212		 0.00025845	
O		9.28578265		8.07602428		0.79199190		 0.00000357		-0.00007689		 0.00000234	
O		-1.15171602		4.84863257		7.28588845		-0.00000357		 0.00007689		-0.00000234	
O		3.98348606		2.78108529		4.76281366		-0.00001958		 0.00010012		 0.00004472	
O		4.15057952		10.14357262		3.31506564		 0.00001958		-0.00010012		-0.00004472	
O		2.92361247		9.31211289		8.22926122		-0.00010955		 0.00034038		-0.00050455	
O		5.21045311		3.61254502		-0.15138087		 0.00010955		-0.00034038		 0.00050455	
O		4.65489441		2.44970313		7.21171528		 0.00000367		-0.00016988		 0.00041242	
O		3.47917116		10.47495372		0.86616508		-0.00000367		 0.00016988		-0.00041242	
O		2.25220517		9.56737156		5.78949387		-0.00037813		 0.00006195		-0.00014883	
O		5.88186146		3.35728635		2.28838543		 0.00037813		-0.00006195		 0.00014883	
O		4.87379495		0.99789462		1.53737543		-0.00005736		-0.00033084		 0.00010269	
O		3.26027062		11.92676223		6.54050492		 0.00005736		 0.00033084		-0.00010269	
O		4.48723767		7.86374336		2.21364686		-0.00012077		 0.00015260		 0.00009402	
O		3.64682896		5.06091349		5.86423350		 0.00012077		-0.00015260		-0.00009402	
O		4.67919493		-0.08812074		9.34862243		-0.00009153		 0.00013889		 0.00003616	
O		3.45487170		13.01277759		-1.27074207		 0.00009153		-0.00013889		-0.00003616	
O		2.22790466		7.47574081		4.20812212		 0.00041429		-0.00026552		-0.00035508	
O		5.90616198		5.44891709		3.86975930		-0.00041429		 0.00026552		 0.00035508	
O		7.85626399		0.81016515		2.01342143		 0.00071953		 0.00003775		 0.00019694	
O		0.27780158		12.11449170		6.06445893		-0.00071953		-0.00003775		-0.00019694	
O		1.50476863		7.78644884		1.76940404		 0.00015902		 0.00013534		-0.00025397	
O		6.62929800		5.13820907		6.30847632		-0.00015902		-0.00013534		 0.00025397	
O		-1.10338921		0.04286022		7.90976304		-0.00004653		-0.00042346		 0.00013020	
O		9.23745584		12.88179769		0.16811838		 0.00004653		 0.00042346		-0.00013020	
O		8.01048880		7.26017655		5.65713223		-0.00000913		-0.00037192		 0.00020181	
O		0.12357784		5.66448030		2.42074919		 0.00000913		 0.00037192		-0.00020181	
O		9.65343718		1.08941305		0.13791505		 0.00008690		-0.00075639		 0.00028954	
O		-1.51937054		11.83524486		7.93996531		-0.00008690		 0.00075639		-0.00028954	
O		-0.29240349		7.61715731		3.63171565		 0.00005520		-0.00013354		-0.00022907	
O		8.42647013		5.30749848		4.44616364		-0.00005520		 0.00013354		 0.00022907	
O		1.35807613		-0.00139656		8.51013544		 0.00066001		 0.00039966		-0.00000740	
O		6.77599050		12.92605341		-0.43225615		-0.00066001		-0.00039966		 0.00000740	
O		5.54902345		7.36082290		5.04999197		-0.00034213		-0.00020784		 0.00025648	
O		2.58504318		5.56383501		3.02788838		 0.00034213		 0.00020784		-0.00025648	
O		2.03629998		0.94431828		0.57129246		-0.00012055		-0.00008234		 0.00027916	
O		6.09776666		11.98033963		7.50658789		 0.00012055		 0.00008234		-0.00027916	
O		7.32473264		7.57335370		3.22100714		-0.00014563		-0.00021664		-0.00004460	
O		0.80933293		5.35130421		4.85687427		 0.00014563		 0.00021664		 0.00004460	
O		2.21259335		2.53319057		6.58545204		-0.00006322		-0.00025691		 0.00011061	
O		5.92147434		10.39146522		1.49242938		 0.00006322		 0.00025691		-0.00011061	
O		4.69450729		9.50079951		6.41372845		-0.00028608		 0.00011068		-0.00027273	
O		3.43956040		3.42385839		1.66415191		 0.00028608		-0.00011068		 0.00027273	
O		8.35511654		0.58148130		5.01906337		-0.00030440		-0.00013566		-0.00029864	
O		-0.22104990		12.34317555		3.05881699		 0.00030440		 0.00013566		 0.00029864	
O		-1.44801695		7.11063376		8.50114199		 0.00020551		 0.00009018		-0.00012089	
O		9.58208359		5.81402415		-0.42326058		-0.00020551		-0.00009018		 0.00012089	
O		-0.84821948		2.74516232		5.80318839		 0.00004640		 0.00004312		 0.00010947	
O		8.98228717		10.17949559		2.27469197		-0.00004640		-0.00004312		-0.00010947	
O		7.75532012		9.52847760		7.16723403		-0.00025988		 0.00002010		-0.00011456	
O		0.37874651		3.39617925		0.91064738		 0.00025988		-0.00002010		 0.00011456	
O		8.86703150		3.07085025		3.13543281		 0.00015152		 0.00003779		-0.00019111	
O		-0.73296592		9.85380766		4.94244754		-0.00015152		-0.00003779		 0.00019111	
O		0.49400112		10.38640945		0.06411563		 0.00015359		-0.00012405		 0.00019270	
O		7.64006445		2.53824740		8.01376472		-0.00015359		 0.00012405		-0.00019270	
H		-1.20765983		2.01731570		5.53522623		 0.00016790		-0.00007257		 0.00066299	
H		9.34172647		10.90734115		2.54265518		-0.00016790		 0.00007257		-0.00066299	
H		8.11475942		8.71411326		7.62026172		 0.00003067		-0.00021373		 0.00048442	
H		0.01930722		4.21054359		0.45761864		-0.00003067		 0.00021373		-0.00048442	
H		8.69894806		2.38809262		3.71902536		 0.00031526		-0.00025933		 0.00003613	
H		-0.56488143		10.53656317		4.35885500		-0.00031526		 0.00025933		-0.00003613	
H		0.66208562		9.82581087		-0.37027505		 0.00009596		 0.00017077		 0.00024285	
H		7.47198101		3.09884598		8.44815541		-0.00009596		-0.00017077		-0.00024285	
