# total energy = -18391.0514659 eV

CRYSTAL
PRIMVEC
		11.10979961		0.00000000		0.00000000
		0.00000000		6.38940129		0.00000000
		0.00000000		0.00000000		4.94880469
PRIMECORD
   28 1
Mg		0.00000000		0.00000000		0.00000000		0.00000000		0.00000000		0.00000000
Mg		5.55489981		0.00000000		2.47440123		0.00000000		0.00000000		0.00000000
Mg		0.00000000		3.19469954		0.00000000		-0.00000000		0.00000000		-0.00000000
Mg		5.55489981		3.19469954		2.47440123		0.00000000		0.00000000		-0.00000000
Ca		3.07563692		1.59735032		4.83720675		 0.00077203		0.00000000		-0.00059336
Ca		8.03416380		4.79204986		0.11159572		-0.00077203		0.00000000		 0.00059336
Ca		2.47926288		4.79204986		2.36280552		-0.00077203		0.00000000		-0.00059336
Ca		8.63053673		1.59735032		2.58599695		 0.00077203		0.00000000		 0.00059336
Si		0.90611526		1.59735032		2.03385879		 0.00022344		0.00000000		-0.00060381
Si		10.20368436		4.79204986		2.91494367		-0.00022344		0.00000000		 0.00060381
Si		4.64878455		4.79204986		4.50826003		-0.00022344		0.00000000		-0.00060381
Si		6.46101617		1.59735032		0.44054244		 0.00022344		0.00000000		 0.00060381
O		0.86289814		1.59735032		3.69032214		 0.00015353		0.00000000		-0.00031512
O		10.24690148		4.79204986		1.25848144		-0.00015353		0.00000000		 0.00031512
O		4.69200167		4.79204986		1.21592091		-0.00015353		0.00000000		-0.00031512
O		6.41779794		1.59735032		3.73288156		 0.00015353		0.00000000		 0.00031512
O		4.98841224		1.59735032		1.21740629		-0.00025153		0.00000000		-0.00039314
O		6.12138849		4.79204986		3.73139729		 0.00025153		0.00000000		 0.00039314
O		0.56648868		4.79204986		3.69180641		 0.00025153		0.00000000		-0.00039314
O		10.54331204		1.59735032		1.25699606		-0.00025153		0.00000000		 0.00039314
O		1.63902874		0.29199553		1.35250812		 0.00011607		-0.00007109		-0.00007966
O		9.47077088		6.09740354		3.59629435		-0.00011607		 0.00007109		 0.00007966
O		3.91587107		6.09740354		3.82690935		-0.00011607		 0.00007109		-0.00007966
O		7.19392854		0.29199553		1.12189423		 0.00011607		-0.00007109		 0.00007966
O		9.47077088		3.48669618		3.59629435		-0.00011607		-0.00007109		 0.00007966
O		1.63902874		2.90270401		1.35250812		 0.00011607		 0.00007109		-0.00007966
O		7.19392854		2.90270401		1.12189423		 0.00011607		 0.00007109		 0.00007966
O		3.91587107		3.48669618		3.82690935		-0.00011607		-0.00007109		-0.00007966
