# total energy = -18390.697258 eV

CRYSTAL
PRIMVEC
		11.10979961		0.00000000		0.00000000
		0.00000000		6.38940129		0.00000000
		0.00000000		0.00000000		5.06950155
PRIMECORD
   28 1
Mg		0.00000000		0.00000000		0.00000000		0.00000000		-0.00000000		0.00000000
Mg		5.55489981		0.00000000		2.53475300		0.00000000		0.00000000		-0.00000000
Mg		0.00000000		3.19469954		0.00000000		0.00000000		0.00000000		0.00000000
Mg		5.55489981		3.19469954		2.53475300		0.00000000		-0.00000000		0.00000000
Ca		3.07563692		1.59735032		4.95518838		-0.00091502		0.00000000		-0.00048049
Ca		8.03416380		4.79204986		0.11431651		 0.00091502		0.00000000		 0.00048049
Ca		2.47926288		4.79204986		2.42043538		 0.00091502		0.00000000		-0.00048049
Ca		8.63053673		1.59735032		2.64906950		-0.00091502		0.00000000		 0.00048049
Si		0.90611526		1.59735032		2.08346516		 0.00048853		0.00000000		-0.00077299
Si		10.20368436		4.79204986		2.98603972		-0.00048853		0.00000000		 0.00077299
Si		4.64878455		4.79204986		4.61821816		-0.00048853		0.00000000		-0.00077299
Si		6.46101617		1.59735032		0.45128673		 0.00048853		0.00000000		 0.00077299
O		0.86289814		1.59735032		3.78033040		 0.00006116		0.00000000		-0.00015689
O		10.24690148		4.79204986		1.28917448		-0.00006116		0.00000000		 0.00015689
O		4.69200167		4.79204986		1.24557741		-0.00006116		0.00000000		-0.00015689
O		6.41779794		1.59735032		3.82392748		 0.00006116		0.00000000		 0.00015689
O		4.98841224		1.59735032		1.24709834		-0.00038725		0.00000000		-0.00042471
O		6.12138849		4.79204986		3.82240655		 0.00038725		0.00000000		 0.00042471
O		0.56648868		4.79204986		3.78185133		 0.00038725		0.00000000		-0.00042471
O		10.54331204		1.59735032		1.28765355		-0.00038725		0.00000000		 0.00042471
O		1.63902874		0.29199553		1.38549644		 0.00051635		-0.00073173		-0.00017472
O		9.47077088		6.09740354		3.68400844		-0.00051635		 0.00073173		 0.00017472
O		3.91587107		6.09740354		3.92024833		-0.00051635		 0.00073173		-0.00017472
O		7.19392854		0.29199553		1.14925655		 0.00051635		-0.00073173		 0.00017472
O		9.47077088		3.48669618		3.68400844		-0.00051635		-0.00073173		 0.00017472
O		1.63902874		2.90270401		1.38549644		 0.00051635		 0.00073173		-0.00017472
O		7.19392854		2.90270401		1.14925655		 0.00051635		 0.00073173		 0.00017472
O		3.91587107		3.48669618		3.92024833		-0.00051635		-0.00073173		-0.00017472
