# total energy = -18388.2708621 eV

CRYSTAL
PRIMVEC
		11.10979961		0.00000000		0.00000000
		0.00000000		6.38940129		0.00000000
		0.00000000		0.00000000		4.34528704
PRIMECORD
   28 1
Mg		0.00000000		0.00000000		0.00000000		-0.00000000		0.00000000		0.00000000
Mg		5.55489981		0.00000000		2.17264463		0.00000000		0.00000000		0.00000000
Mg		0.00000000		3.19469954		0.00000000		0.00000000		0.00000000		0.00000000
Mg		5.55489981		3.19469954		2.17264463		0.00000000		0.00000000		0.00000000
Ca		3.07563692		1.59735032		4.24730417		-0.00043932		0.00000000		 0.00024259
Ca		8.03416380		4.79204986		0.09798621		 0.00043932		-0.00000000		-0.00024259
Ca		2.47926288		4.79204986		2.07465842		 0.00043932		0.00000000		 0.00024259
Ca		8.63053673		1.59735032		2.27063084		-0.00043932		0.00000000		-0.00024259
Si		0.90611526		1.59735032		1.78582696		-0.00059912		0.00000000		 0.00028315
Si		10.20368436		4.79204986		2.55946341		 0.00059912		0.00000000		-0.00028315
Si		4.64878455		4.79204986		3.95847160		 0.00059912		0.00000000		 0.00028315
Si		6.46101617		1.59735032		0.38681767		-0.00059912		0.00000000		-0.00028315
O		0.86289814		1.59735032		3.24028304		-0.00070487		-0.00000000		-0.00008933
O		10.24690148		4.79204986		1.10500733		 0.00070487		0.00000000		 0.00008933
O		4.69200167		4.79204986		1.06763841		 0.00070487		0.00000000		-0.00008933
O		6.41779794		1.59735032		3.27765197		-0.00070487		-0.00000000		 0.00008933
O		4.98841224		1.59735032		1.06894048		-0.00016962		0.00000000		 0.00071491
O		6.12138849		4.79204986		3.27634879		 0.00016962		0.00000000		-0.00071491
O		0.56648868		4.79204986		3.24158622		 0.00016962		-0.00000000		 0.00071491
O		10.54331204		1.59735032		1.10370415		-0.00016962		0.00000000		-0.00071491
O		1.63902874		0.29199553		1.18756759		-0.00039403		 0.00021333		-0.00013072
O		9.47077088		6.09740354		3.15772168		 0.00039403		-0.00021333		 0.00013072
O		3.91587107		6.09740354		3.36021333		 0.00039403		-0.00021333		-0.00013072
O		7.19392854		0.29199553		0.98507705		-0.00039403		 0.00021333		 0.00013072
O		9.47077088		3.48669618		3.15772168		 0.00039403		 0.00021333		 0.00013072
O		1.63902874		2.90270401		1.18756759		-0.00039403		-0.00021333		-0.00013072
O		7.19392854		2.90270401		0.98507705		-0.00039403		-0.00021333		 0.00013072
O		3.91587107		3.48669618		3.36021333		 0.00039403		 0.00021333		-0.00013072
