# total energy = -18385.0567794 eV

CRYSTAL
PRIMVEC
		11.10979961		0.00000000		0.00000000
		0.00000000		6.38940129		1.02230154
		0.00000000		0.77249770		4.82809672
PRIMECORD
   28 1
Mg		0.00000000		0.00000000		0.00000000		0.00000000		0.00000000		0.00000000
Mg		5.55489981		0.38624774		2.41404947		0.00000000		0.00000000		0.00000000
Mg		0.00000000		3.19469954		0.51115188		0.00000000		0.00000000		0.00000000
Mg		5.55489981		3.58094838		2.92520135		0.00000000		0.00000000		-0.00000000
Ca		3.07563692		2.35242563		4.97480273		-0.00020582		-0.00018121		-0.00053486
Ca		8.03416380		4.80947003		0.87560219		 0.00020582		 0.00018121		 0.00053486
Ca		2.47926288		5.16087743		3.07190514		 0.00020582		-0.00018121		-0.00053486
Ca		8.63053673		2.00101823		2.77849978		-0.00020582		 0.00018121		 0.00053486
Si		0.90611526		1.91482951		2.23982892		-0.00031662		 0.00007302		 0.00046287
Si		10.20368436		5.24706615		3.61057600		 0.00031662		-0.00007302		-0.00046287
Si		4.64878455		5.49577790		5.16503027		 0.00031662		 0.00007302		 0.00046287
Si		6.46101617		1.66611776		0.68537354		-0.00031662		-0.00007302		-0.00046287
O		0.86289814		2.17340010		3.85589037		 0.00018983		-0.00064718		 0.00072918
O		10.24690148		4.98849556		1.99451344		-0.00018983		 0.00064718		-0.00072918
O		4.69200167		4.98185190		1.95299167		-0.00018983		-0.00064718		 0.00072918
O		6.41779794		2.18004376		3.89741214		 0.00018983		 0.00064718		-0.00072918
O		4.98841224		1.78738345		1.44328851		 0.00030003		 0.00028237		 0.00032543
O		6.12138849		5.37451221		4.40711530		-0.00030003		-0.00028237		-0.00032543
O		0.56648868		5.36833183		4.36849097		-0.00030003		 0.00028237		 0.00032543
O		10.54331204		1.79356383		1.48191284		 0.00030003		-0.00028237		-0.00032543
O		1.63902874		0.50311950		1.36623872		-0.00064631		 0.00003364		-0.00004310
O		9.47077088		6.65877727		4.48416509		 0.00064631		-0.00003364		 0.00004310
O		3.91587107		6.69477525		4.70915520		 0.00039698		 0.00048631		-0.00058931
O		7.19392854		0.46712041		1.14124972		-0.00039698		-0.00048631		 0.00058931
O		9.47077088		4.04806880		4.06645218		 0.00039698		-0.00048631		 0.00058931
O		1.63902874		3.11382686		1.78395163		-0.00039698		 0.00048631		-0.00058931
O		7.19392854		3.07782889		1.55896263		-0.00064631		-0.00003364		 0.00004310
O		3.91587107		4.08406677		4.29144118		 0.00064631		 0.00003364		-0.00004310
