# total energy = -10315.6540339 eV

CRYSTAL
PRIMVEC
		4.98000197		0.00000000		0.79680253
		0.00000000		8.84999983		0.00000000
		0.44000127		0.00000000		2.74999784
PRIMECORD
   14 1
Si		0.00000000		0.00000000		0.00000000		0.00000000		0.00000000		0.00000000
Si		2.48999998		4.42499992		0.39840026		0.00000000		0.00000000		0.00000000
Mg		0.62786220		2.94616515		1.44025824		-0.00069394		-0.00052346		-0.00000707
Mg		4.79213801		5.90383518		2.10654213		 0.00069394		 0.00052346		 0.00000707
Mg		2.30213804		7.37116507		1.70814187		 0.00069394		-0.00052346		 0.00000707
Mg		3.11786218		1.47883526		1.83865800		-0.00069394		 0.00052346		-0.00000707
O		1.29767189		0.39648026		1.54742824		-0.00015939		-0.00059933		-0.00004485
O		4.12232833		8.45352108		1.99937214		 0.00015939		 0.00059933		 0.00004485
O		1.63232784		4.82148017		1.60097188		 0.00015939		-0.00059933		 0.00004485
O		3.78767187		4.02852016		1.94582799		-0.00015939		 0.00059933		-0.00004485
O		1.95464980		2.73199513		0.31274415		-0.00058417		-0.00026899		-0.00043877
O		3.02535015		6.11800622		0.48405586		 0.00058417		 0.00026899		 0.00043877
O		0.53535017		7.15699504		0.08565611		 0.00058417		-0.00026899		 0.00043877
O		4.44465029		1.69300529		0.71114390		-0.00058417		 0.00026899		-0.00043877
