# total energy = -10315.6540337 eV

CRYSTAL
PRIMVEC
		4.98000197		0.00000000		-0.79680253
		0.00000000		8.84999983		0.00000000
		-0.44000127		0.00000000		2.74999784
PRIMECORD
   14 1
Si		0.00000000		0.00000000		0.00000000		0.00000000		0.00000000		0.00000000
Si		2.48999998		4.42499992		-0.39840026		0.00000000		-0.00000000		0.00000000
Mg		0.18786194		2.94616515		1.30974212		-0.00069338		-0.00052377		 0.00000713
Mg		4.35213826		5.90383518		0.64345823		 0.00069338		 0.00052377		-0.00000713
Mg		1.86213828		7.37116507		1.04185798		 0.00069338		-0.00052377		-0.00000713
Mg		2.67786192		1.47883526		0.91134186		-0.00069338		 0.00052377		 0.00000713
O		0.85767213		0.39648026		1.20257212		-0.00015904		-0.00059907		 0.00004534
O		3.68232807		8.45352108		0.75062822		 0.00015904		 0.00059907		-0.00004534
O		1.19232809		4.82148017		1.14902798		 0.00015904		-0.00059907		-0.00004534
O		3.34767211		4.02852016		0.80417187		-0.00015904		 0.00059907		 0.00004534
O		1.95464980		2.73199513		-0.31274415		-0.00058475		-0.00026773		 0.00043947
O		3.02535015		6.11800622		-0.48405586		 0.00058475		 0.00026773		-0.00043947
O		0.53535017		7.15699504		-0.08565611		 0.00058475		-0.00026773		-0.00043947
O		4.44465029		1.69300529		-0.71114390		-0.00058475		 0.00026773		 0.00043947
