# total energy = -10317.0595002 eV

CRYSTAL
PRIMVEC
		4.98000023		0.00000000		0.19919981
		0.00000000		8.84999780		0.00000000
		0.11000148		0.00000000		2.75000202
PRIMECORD
   14 1
Si		0.00000000		0.00000000		0.00000000		-0.00000000		0.00000000		0.00000000
Si		2.49000011		4.42499989		0.09959990		0.00000000		0.00000000		0.00000000
Mg		0.46286195		2.94616509		1.39131408		 0.00043718		-0.00070194		-0.00050201
Mg		4.62713826		5.90383520		1.55788625		-0.00043718		 0.00070194		 0.00050201
Mg		2.13713815		7.37116498		1.45828585		-0.00043718		-0.00070194		 0.00050201
Mg		2.95286206		1.47883481		1.49091399		 0.00043718		 0.00070194		-0.00050201
O		1.13267181		0.39647979		1.41810697		 0.00005092		 0.00061393		 0.00030073
O		3.95732790		8.45352100		1.53109286		-0.00005092		-0.00061393		-0.00030073
O		1.46732779		4.82148018		1.43149295		-0.00005092		 0.00061393		-0.00030073
O		3.62267192		4.02852011		1.51770688		 0.00005092		-0.00061393		 0.00030073
O		1.95465013		2.73199489		0.07818622		-0.00034757		-0.00070924		 0.00034204
O		3.02535010		6.11800590		0.12101408		 0.00034757		 0.00070924		-0.00034204
O		0.53534999		7.15699528		0.02141418		 0.00034757		-0.00070924		-0.00034204
O		4.44465024		1.69300501		0.17778613		-0.00034757		 0.00070924		 0.00034204
