# total energy = -41274.2034706 eV

CRYSTAL
PRIMVEC
		5.69830037		0.00000000		0.22793179
		0.00000000		11.43799779		0.00000000
		0.33026385		0.00000000		8.25660201
PRIMECORD
   56 1
Mg		0.00000000		0.00000000		0.00000000		0.00000000		0.00000000		0.00000000
Mg		0.00000000		5.71900003		0.00000000		0.00000000		0.00000000		0.00000000
Mg		3.01428211		5.71900003		4.24226633		0.00000000		0.00000000		0.00000000
Mg		3.01428211		0.00000000		4.24226633		0.00000000		0.00000000		0.00000000
Mg		0.32038879		2.85950030		8.00972818		 0.00010619		-0.00000001		 0.00074163
Mg		0.00987507		8.57850034		0.24687212		-0.00010619		 0.00000001		-0.00074163
Mg		3.00440705		8.57850034		3.99539421		 0.00010620		 0.00000001		 0.00074165
Mg		3.02415718		2.85950030		4.48913901		-0.00010620		-0.00000001		-0.00074165
Mg		1.50714077		1.45948884		2.12113316		-0.00000001		 0.00046762		 0.00000001
Mg		4.52142289		9.97851123		6.36339892		 0.00000001		-0.00046762		-0.00000001
Mg		4.35629096		4.25951120		2.23509906		 0.00000001		 0.00027355		 0.00000001
Mg		1.67227327		7.17848944		6.24943303		-0.00000001		-0.00027355		-0.00000001
Mg		4.52142289		7.17848944		6.36339892		 0.00000001		 0.00046763		-0.00000001
Mg		1.50714077		4.25951120		2.12113316		-0.00000001		-0.00046763		 0.00000001
Mg		1.67227327		9.97851123		6.24943303		-0.00000000		 0.00027356		-0.00000000
Mg		4.35629096		1.45948884		2.23509906		0.00000000		-0.00027356		0.00000000
Si		0.20370719		1.37027220		5.09267122		-0.00076369		 0.00025436		 0.00035693
Si		0.12655723		10.06772844		3.16392907		 0.00076369		-0.00025436		-0.00035693
Si		0.20370719		4.34872726		5.09267122		-0.00076368		-0.00025438		 0.00035689
Si		0.12655723		7.08927224		3.16392907		 0.00076368		 0.00025438		-0.00035689
Si		2.88772488		7.08927224		1.07833725		-0.00076370		 0.00025437		 0.00035696
Si		3.14083934		4.34872726		7.40619540		 0.00076370		-0.00025437		-0.00035696
Si		2.88772488		10.06772844		1.07833725		-0.00076368		-0.00025437		 0.00035694
Si		3.14083934		1.37027220		7.40619540		 0.00076368		 0.00025437		-0.00035694
O		0.07153493		2.85950030		1.78838001		 0.00031182		-0.00000000		 0.00086926
O		0.25872893		8.57850034		6.46822142		-0.00031182		0.00000000		-0.00086926
O		3.08581704		8.57850034		6.03064634		 0.00031180		-0.00000001		 0.00086928
O		2.94274719		2.85950030		2.45388688		-0.00031180		 0.00000001		-0.00086928
O		0.23660127		2.85950030		5.91502890		-0.00011973		 0.00000002		 0.00044580
O		0.09366315		8.57850034		2.34157197		 0.00011973		-0.00000002		-0.00044580
O		2.92061896		8.57850034		1.90069493		-0.00011971		-0.00000001		 0.00044578
O		3.10794527		2.85950030		6.58383829		 0.00011971		 0.00000001		-0.00044578
O		0.08448212		11.32362015		2.11203825		-0.00035691		 0.00001134		 0.00019321
O		0.24578173		0.11437992		6.14456205		 0.00035691		-0.00001134		-0.00019321
O		0.08448212		5.83337996		2.11203825		-0.00035693		-0.00001137		 0.00019319
O		0.24578173		5.60462011		6.14456205		 0.00035693		 0.00001137		-0.00019319
O		3.09876310		5.60462011		6.35430514		-0.00035688		 0.00001133		 0.00019320
O		2.92979999		5.83337996		2.13022808		 0.00035688		-0.00001133		-0.00019320
O		3.09876310		0.11437992		6.35430514		-0.00035687		-0.00001133		 0.00019319
O		2.92979999		11.32362015		2.13022808		 0.00035687		 0.00001133		-0.00019319
O		1.81789230		1.40115489		8.25428037		 0.00009405		 0.00032541		-0.00035392
O		4.21067136		10.03684518		0.23025228		-0.00009405		-0.00032541		 0.00035392
O		4.53598114		4.31784515		8.36300420		 0.00030670		-0.00022746		 0.00023739
O		1.49258195		7.12015492		0.12152902		-0.00030670		 0.00022746		-0.00023739
O		4.21067136		7.12015492		0.23025228		-0.00009403		 0.00032539		 0.00035391
O		1.81789230		4.31784515		8.25428037		 0.00009403		-0.00032539		-0.00035391
O		1.49258195		10.03684518		0.12152902		-0.00030669		-0.00022749		-0.00023738
O		4.53598114		1.40115489		8.36300420		 0.00030669		 0.00022749		 0.00023738
O		4.50190999		7.12015492		4.23994583		 0.00009405		 0.00032539		-0.00035393
O		1.52665424		4.31784515		4.24458625		-0.00009405		-0.00032539		 0.00035393
O		1.52170017		10.03684518		4.12073787		 0.00030667		-0.00022749		 0.00023740
O		4.50686406		1.40115489		4.36379535		-0.00030667		 0.00022749		-0.00023740
O		1.52665424		1.40115489		4.24458625		-0.00009405		 0.00032541		 0.00035390
O		4.50190999		10.03684518		4.23994583		 0.00009405		-0.00032541		-0.00035390
O		4.50686406		4.31784515		4.36379535		-0.00030668		-0.00022749		-0.00023739
O		1.52170017		7.12015492		4.12073787		 0.00030668		 0.00022749		 0.00023739
