# total energy = -41256.0129985 eV

CRYSTAL
PRIMVEC
		5.69830219		0.00000000		-0.91173089
		0.00000000		11.43799816		0.00000000
		-1.32105790		0.00000000		8.25659744
PRIMECORD
   56 1
Mg		0.00000000		0.00000000		0.00000000		0.00000000		0.00000000		0.00000000
Mg		0.00000000		5.71900023		0.00000000		0.00000000		0.00000000		0.00000000
Mg		2.18862214		5.71900023		3.67243616		0.00000000		0.00000000		0.00000000
Mg		2.18862214		0.00000000		3.67243616		0.00000000		0.00000000		0.00000000
Mg		-1.28155577		2.85949983		8.00972821		 0.00075581		-0.00000000		 0.00044980
Mg		-0.03949982		8.57850006		0.24687213		-0.00075581		0.00000000		-0.00044980
Mg		2.22812196		8.57850006		3.42556404		 0.00075582		0.00000000		 0.00044980
Mg		2.14912175		2.85949983		3.91930887		-0.00075582		-0.00000000		-0.00044980
Mg		1.09431078		1.45948904		1.83621808		 0.00000002		 0.00019989		-0.00000002
Mg		3.28293293		9.97851085		5.50865424		-0.00000002		-0.00019989		 0.00000002
Mg		3.94346130		4.25951120		1.38035379		 0.00000001		-0.00031250		 0.00000001
Mg		0.43378299		7.17848927		5.96451796		-0.00000001		 0.00031250		-0.00000001
Mg		3.28293293		7.17848927		5.50865424		-0.00000002		 0.00019989		 0.00000002
Mg		1.09431078		4.25951120		1.83621808		 0.00000002		-0.00019989		-0.00000002
Mg		0.43378299		9.97851085		5.96451796		-0.00000002		-0.00031251		-0.00000001
Mg		3.94346130		1.45948904		1.38035379		 0.00000002		 0.00031251		 0.00000001
Si		-0.81482684		1.37027224		5.09267122		-0.00008181		 0.00027033		-0.00055970
Si		-0.50622875		10.06772823		3.16392911		 0.00008181		-0.00027033		 0.00055970
Si		-0.81482684		4.34872684		5.09267122		-0.00008181		-0.00027034		-0.00055970
Si		-0.50622875		7.08927190		3.16392911		 0.00008181		 0.00027034		 0.00055970
Si		2.69485089		7.08927190		0.50850705		-0.00008181		 0.00027034		-0.00055972
Si		1.68239282		4.34872684		6.83636527		 0.00008181		-0.00027034		 0.00055972
Si		2.69485089		10.06772823		0.50850705		-0.00008181		-0.00027033		-0.00055971
Si		1.68239282		1.37027224		6.83636527		 0.00008181		 0.00027033		 0.00055971
O		-0.28614111		2.85949983		1.78838007		-0.00072419		0.00000000		-0.00014140
O		-1.03491506		8.57850006		6.46822084		 0.00072419		-0.00000000		 0.00014140
O		1.90248103		8.57850006		5.46081623		-0.00072422		-0.00000000		-0.00014139
O		2.47476325		2.85949983		1.88405725		 0.00072422		0.00000000		 0.00014139
O		-0.94640518		2.85949983		5.91502893		-0.00061415		-0.00000000		-0.00049955
O		-0.37465099		8.57850006		2.34157198		 0.00061415		0.00000000		 0.00049955
O		2.56327313		8.57850006		1.33086476		-0.00061414		0.00000000		-0.00049956
O		1.81397000		2.85949983		6.01400815		 0.00061414		-0.00000000		 0.00049956
O		-0.33792576		11.32362020		2.11203816		-0.00006599		-0.00059959		-0.00020971
O		-0.98312983		0.11438027		6.14456217		 0.00006599		 0.00059959		 0.00020971
O		-0.33792576		5.83337993		2.11203816		-0.00006599		 0.00059959		-0.00020971
O		-0.98312983		5.60461996		6.14456217		 0.00006599		-0.00059959		 0.00020971
O		1.85069581		5.60461996		5.78447490		-0.00006601		-0.00059959		-0.00020970
O		2.52654790		5.83337993		1.56039801		 0.00006601		 0.00059959		 0.00020970
O		1.85069581		0.11438027		5.78447490		-0.00006601		 0.00059959		-0.00020971
O		2.52654790		11.32362020		1.56039801		 0.00006601		-0.00059959		 0.00020971
O		0.17895700		1.40115514		7.95625907		 0.00050750		-0.00022085		 0.00064209
O		4.19828729		10.03684533		-0.61138674		-0.00050750		 0.00022085		-0.00064209
O		2.89704624		4.31784510		7.52136520		-0.00031171		-0.00049679		-0.00054423
O		1.48019805		7.12015479		-0.17649172		 0.00031171		 0.00049679		 0.00054423
O		4.19828729		7.12015479		-0.61138674		-0.00050750		-0.00022084		-0.00064209
O		0.17895700		4.31784510		7.95625907		 0.00050750		 0.00022084		 0.00064209
O		1.48019805		10.03684533		-0.17649172		 0.00031171		-0.00049679		 0.00054423
O		2.89704624		1.40115514		7.52136520		-0.00031171		 0.00049679		-0.00054423
O		3.68863531		7.12015479		3.37209490		 0.00050751		-0.00022084		 0.00064208
O		0.68860898		4.31784510		3.97277800		-0.00050751		 0.00022084		-0.00064208
O		0.70842409		10.03684533		3.84892904		-0.00031169		-0.00049678		-0.00054423
O		3.66881904		1.40115514		3.49594386		 0.00031169		 0.00049678		 0.00054423
O		0.68860898		1.40115514		3.97277800		-0.00050751		-0.00022085		-0.00064209
O		3.68863531		10.03684533		3.37209490		 0.00050751		 0.00022085		 0.00064209
O		3.66881904		4.31784510		3.49594386		 0.00031169		-0.00049679		 0.00054423
O		0.70842409		7.12015479		3.84892904		-0.00031169		 0.00049679		-0.00054423
