
     Program PWSCF v.6.6 starts on  4Feb2024 at 13:33:50 

     This program is part of the open-source Quantum ESPRESSO suite
     for quantum simulation of materials; please cite
         "P. Giannozzi et al., J. Phys.:Condens. Matter 21 395502 (2009);
         "P. Giannozzi et al., J. Phys.:Condens. Matter 29 465901 (2017);
          URL http://www.quantum-espresso.org", 
     in publications or presentations arising from this work. More details at
     http://www.quantum-espresso.org/quote

     Parallel version (MPI & OpenMP), running on      16 processor cores
     Number of MPI processes:                16
     Threads/MPI process:                     1

     MPI processes distributed on     2 nodes
     R & G space division:  proc/nbgrp/npool/nimage =      16
     Fft bands division:     nmany     =       1
     Waiting for input...
     Reading input from standard input

     Current dimensions of program PWSCF are:
     Max number of different atomic species (ntypx) = 10
     Max number of k-points (npk) =  40000
     Max angular momentum in pseudopotentials (lmaxx) =  3

     IMPORTANT: XC functional enforced from input :
     Exchange-correlation= PBE
                           (   1   4   3   4   0   0   0)
     Any further DFT definition will be discarded
     Please, verify this is what you really want


     --------------------------------------------
     Parameters for DFT-D3 Dispersion Correction:
     --------------------------------------------
       Reference C6 values for interpolation: 

         atom   Coordination number   C6
         O          0.000            31.01
         O          0.993            25.63
         O          1.989            20.74
         Mg         0.000          1366.75
         Mg         0.963           902.54
         Mg         1.950           351.12

       Values used:

         atom   Coordination number  R0_AB[au]  C6      C8
         Mg        16.030            3.292    351.12  31436.69
         Mg        16.030            3.292    351.12  31436.69
         Mg        16.030            3.292    351.12  31436.69
         Mg        16.030            3.292    351.12  31436.69
         O          5.822            2.345     20.74    418.58
         O          5.822            2.345     20.74    418.58
         O          5.822            2.345     20.74    418.58
         O          5.822            2.345     20.74    418.58

         Molecular C6 ( Ry / a.u.^6 ) =      8251.69


     Subspace diagonalization in iterative solution of the eigenvalue problem:
     a serial algorithm will be used

     Found symmetry operation: I + (  0.0000  0.5000  0.5000)
     This is a supercell, fractional translations are disabled
     Message from routine setup:
     using ibrav=0 with symmetry is DISCOURAGED, use correct ibrav instead
 
     Parallelization info
     --------------------
     sticks:   dense  smooth     PW     G-vecs:    dense   smooth      PW
     Min         124     124     35                 4192     4192     623
     Max         125     125     36                 4195     4195     625
     Sum        1999    1999    561                67101    67101    9983
 


     bravais-lattice index     =            0
     lattice parameter (alat)  =       8.0147  a.u.
     unit-cell volume          =     496.6530 (a.u.)^3
     number of atoms/cell      =            8
     number of atomic types    =            2
     number of electrons       =        64.00
     number of Kohn-Sham states=           38
     kinetic-energy cutoff     =     100.0000  Ry
     charge density cutoff     =     400.0000  Ry
     convergence threshold     =      1.0E-06
     mixing beta               =       0.5000
     number of iterations used =            8  plain     mixing
     Exchange-correlation= PBE
                           (   1   4   3   4   0   0   0)
     nstep                     =          100


     celldm(1)=   8.014727  celldm(2)=   0.000000  celldm(3)=   0.000000
     celldm(4)=   0.000000  celldm(5)=   0.000000  celldm(6)=   0.000000

     crystal axes: (cart. coord. in units of alat)
               a(1) = (   0.992877  -0.119145   0.000000 )  
               a(2) = (  -0.119145   0.992877   0.000000 )  
               a(3) = (   0.000000   0.000000   0.992877 )  

     reciprocal axes: (cart. coord. in units 2 pi/alat)
               b(1) = (  1.021889  0.122627  0.000000 )  
               b(2) = (  0.122627  1.021889  0.000000 )  
               b(3) = (  0.000000  0.000000  1.007174 )  


     PseudoPot. # 1 for Mg read from file:
     ./Mg.upf
     MD5 check sum: 4c04d8c6e0476e83eaecaf72fa8acc4d
     Pseudo is Norm-conserving, Zval = 10.0
     Generated using ONCVPSP code by D. R. Hamann
     Using radial grid of 1510 points,  4 beta functions with: 
                l(1) =   0
                l(2) =   0
                l(3) =   1
                l(4) =   1

     PseudoPot. # 2 for O  read from file:
     ./O.upf
     MD5 check sum: 3e3f909f7470e8921608ab6b1f57bbae
     Pseudo is Norm-conserving + core correction, Zval =  6.0
     Generated using ONCVPSP code by D. R. Hamann
     Using radial grid of  936 points,  5 beta functions with: 
                l(1) =   0
                l(2) =   0
                l(3) =   1
                l(4) =   1
                l(5) =   2

     atomic species   valence    mass     pseudopotential
        Mg            10.00    24.30500     Mg( 1.00)
        O              6.00    15.99900     O ( 1.00)

      8 Sym. Ops., with inversion, found



   Cartesian axes

     site n.     atom                  positions (alat units)
         1           Mg  tau(   1) = (   0.0000000   0.0000000   0.0000000  )
         2           Mg  tau(   2) = (  -0.0595726   0.4964384   0.4964384  )
         3           Mg  tau(   3) = (   0.4964384  -0.0595726   0.4964384  )
         4           Mg  tau(   4) = (   0.4368658   0.4368658   0.0000000  )
         5           O   tau(   5) = (   0.4368658   0.4368658   0.4964384  )
         6           O   tau(   6) = (   0.4964384  -0.0595726   0.0000000  )
         7           O   tau(   7) = (  -0.0595726   0.4964384   0.0000000  )
         8           O   tau(   8) = (   0.0000000   0.0000000   0.4964384  )

     number of k points=    27  Gaussian smearing, width (Ry)=  0.0050
                       cart. coord. in units 2pi/alat
        k(    1) = (   0.0000000   0.0000000   0.0000000), wk =   0.0160000
        k(    2) = (   0.0000000   0.0000000   0.2014349), wk =   0.0320000
        k(    3) = (   0.0000000   0.0000000   0.4028697), wk =   0.0320000
        k(    4) = (   0.0245253   0.2043779   0.0000000), wk =   0.0640000
        k(    5) = (   0.0245253   0.2043779   0.2014349), wk =   0.1280000
        k(    6) = (   0.0245253   0.2043779   0.4028697), wk =   0.1280000
        k(    7) = (   0.0490507   0.4087558   0.0000000), wk =   0.0640000
        k(    8) = (   0.0490507   0.4087558   0.2014349), wk =   0.1280000
        k(    9) = (   0.0490507   0.4087558   0.4028697), wk =   0.1280000
        k(   10) = (   0.2289032   0.2289032   0.0000000), wk =   0.0320000
        k(   11) = (   0.2289032   0.2289032   0.2014349), wk =   0.0640000
        k(   12) = (   0.2289032   0.2289032   0.4028697), wk =   0.0640000
        k(   13) = (   0.2534286   0.4332811   0.0000000), wk =   0.0640000
        k(   14) = (   0.2534286   0.4332811   0.2014349), wk =   0.1280000
        k(   15) = (   0.2534286   0.4332811   0.4028697), wk =   0.1280000
        k(   16) = (   0.1553272  -0.3842304   0.0000000), wk =   0.0640000
        k(   17) = (   0.1553272  -0.3842304   0.2014349), wk =   0.1280000
        k(   18) = (   0.1553272  -0.3842304   0.4028697), wk =   0.1280000
        k(   19) = (   0.1798525  -0.1798525   0.0000000), wk =   0.0320000
        k(   20) = (   0.1798525  -0.1798525   0.2014349), wk =   0.0640000
        k(   21) = (   0.1798525  -0.1798525   0.4028697), wk =   0.0640000
        k(   22) = (   0.4578065   0.4578065   0.0000000), wk =   0.0320000
        k(   23) = (   0.4578065   0.4578065   0.2014349), wk =   0.0640000
        k(   24) = (   0.4578065   0.4578065   0.4028697), wk =   0.0640000
        k(   25) = (   0.3597051  -0.3597051   0.0000000), wk =   0.0320000
        k(   26) = (   0.3597051  -0.3597051   0.2014349), wk =   0.0640000
        k(   27) = (   0.3597051  -0.3597051   0.4028697), wk =   0.0640000

     Dense  grid:    67101 G-vectors     FFT dimensions: (  54,  54,  54)

     Estimated max dynamical RAM per process >      15.67 MB

     Estimated total dynamical RAM >     250.78 MB

     Initial potential from superposition of free atoms

     starting charge   63.99678, renormalised to   64.00000
     Starting wfcs are   36 randomized atomic wfcs +    2 random wfcs

     total cpu time spent up to now is        0.9 secs

     Self-consistent Calculation

     iteration #  1     ecut=   100.00 Ry     beta= 0.50
     Davidson diagonalization with overlap
     ethr =  1.00E-02,  avg # of iterations =  4.0

     total cpu time spent up to now is        6.3 secs

     total energy              =    -607.86641068 Ry
     estimated scf accuracy    <       1.62577727 Ry

     iteration #  2     ecut=   100.00 Ry     beta= 0.50
     Davidson diagonalization with overlap
     ethr =  2.54E-03,  avg # of iterations =  2.2

     total cpu time spent up to now is        8.0 secs

     total energy              =    -608.32698366 Ry
     estimated scf accuracy    <       0.25304271 Ry

     iteration #  3     ecut=   100.00 Ry     beta= 0.50
     Davidson diagonalization with overlap
     ethr =  3.95E-04,  avg # of iterations =  2.4

     total cpu time spent up to now is        9.7 secs

     total energy              =    -608.36322762 Ry
     estimated scf accuracy    <       0.01336436 Ry

     iteration #  4     ecut=   100.00 Ry     beta= 0.50
     Davidson diagonalization with overlap
     ethr =  2.09E-05,  avg # of iterations =  4.4

     total cpu time spent up to now is       11.6 secs

     total energy              =    -608.36394199 Ry
     estimated scf accuracy    <       0.00168063 Ry

     iteration #  5     ecut=   100.00 Ry     beta= 0.50
     Davidson diagonalization with overlap
     ethr =  2.63E-06,  avg # of iterations =  3.0

     total cpu time spent up to now is       13.4 secs

     total energy              =    -608.36432006 Ry
     estimated scf accuracy    <       0.00004802 Ry

     iteration #  6     ecut=   100.00 Ry     beta= 0.50
     Davidson diagonalization with overlap
     ethr =  7.50E-08,  avg # of iterations =  2.3

     total cpu time spent up to now is       15.0 secs

     total energy              =    -608.36433108 Ry
     estimated scf accuracy    <       0.00000200 Ry

     iteration #  7     ecut=   100.00 Ry     beta= 0.50
     Davidson diagonalization with overlap
     ethr =  3.13E-09,  avg # of iterations =  2.0

     total cpu time spent up to now is       16.6 secs

     total energy              =    -608.36433042 Ry
     estimated scf accuracy    <       0.00000186 Ry

     iteration #  8     ecut=   100.00 Ry     beta= 0.50
     Davidson diagonalization with overlap
     ethr =  2.91E-09,  avg # of iterations =  2.2

     total cpu time spent up to now is       18.3 secs

     End of self-consistent calculation

          k = 0.0000 0.0000 0.0000 (  8363 PWs)   bands (ev):

   -64.3025 -64.2916 -64.2821 -64.2821 -31.2468 -31.2468 -31.1184 -31.1035
   -31.1008 -31.0534 -31.0534 -31.0346 -31.0339 -31.0085 -31.0085 -30.9961
    -8.8785  -7.3516  -7.0813  -7.0811   4.2301   4.3622   4.3623   5.7295
     7.0496   7.0497   7.1564   7.1565   7.6290   8.2071   8.7042   9.5302
    12.6234  15.2956  17.6080  18.4009  18.4009  20.5605

          k = 0.0000 0.0000 0.2014 (  8413 PWs)   bands (ev):

   -64.3015 -64.2927 -64.2821 -64.2821 -31.2462 -31.2461 -31.1167 -31.1025
   -31.0977 -31.0541 -31.0541 -31.0420 -31.0303 -31.0091 -31.0091 -30.9997
    -8.7348  -7.4976  -7.0597  -7.0595   4.4310   4.5463   4.5463   5.8752
     6.7006   6.7006   7.0087   7.0088   7.3990   7.4591   8.7742   9.4411
    13.4885  15.6334  18.0339  18.0339  18.9655  18.9655

          k = 0.0000 0.0000 0.4029 (  8388 PWs)   bands (ev):

   -64.2987 -64.2954 -64.2821 -64.2821 -31.2451 -31.2451 -31.1123 -31.1068
   -31.0818 -31.0605 -31.0551 -31.0551 -31.0208 -31.0101 -31.0101 -31.0091
    -8.3554  -7.8816  -7.0245  -7.0243   5.0508   5.0509   5.0714   5.9502
     5.9503   6.1534   6.2844   6.7805   6.7807   6.8589   8.9653   9.2193
    15.0723  16.0310  18.6891  18.6892  19.6333  20.1983

          k = 0.0245 0.2044 0.0000 (  8382 PWs)   bands (ev):

   -64.3005 -64.2907 -64.2840 -64.2830 -31.2347 -31.2332 -31.1308 -31.1150
   -31.0987 -31.0582 -31.0516 -31.0364 -31.0320 -31.0114 -31.0078 -30.9978
    -8.7177  -7.3092  -7.2651  -7.0903   4.4351   4.5790   4.6226   5.6285
     6.7579   6.8869   7.1558   7.2354   7.2576   8.0804   8.2421   8.9674
    13.4677  15.8637  17.9525  18.0153  18.1852  18.9151

          k = 0.0245 0.2044 0.2014 (  8389 PWs)   bands (ev):

   -64.2996 -64.2916 -64.2839 -64.2831 -31.2341 -31.2330 -31.1300 -31.1169
   -31.0934 -31.0591 -31.0536 -31.0437 -31.0280 -31.0106 -31.0078 -31.0001
    -8.5816  -7.4391  -7.2262  -7.0839   4.5067   4.7111   4.7602   5.8758
     6.0980   6.6967   6.7722   7.2044   7.2304   7.8127   8.3316   8.9841
    14.0693  16.1457  18.0831  18.1961  18.7222  19.3549

          k = 0.0245 0.2044 0.4029 (  8392 PWs)   bands (ev):

   -64.2971 -64.2941 -64.2836 -64.2833 -31.2331 -31.2327 -31.1268 -31.1216
   -31.0795 -31.0609 -31.0597 -31.0574 -31.0182 -31.0091 -31.0081 -31.0074
    -8.2249  -7.7867  -7.1454  -7.0905   4.8861   4.9667   5.2746   5.4208
     5.6854   6.0240   6.4642   7.1383   7.1826   7.2256   8.5622   8.8310
    15.3823  16.3630  18.4151  18.4221  19.7175  20.0420

          k = 0.0491 0.4088 0.0000 (  8398 PWs)   bands (ev):

   -64.2954 -64.2891 -64.2883 -64.2854 -31.2028 -31.1973 -31.1631 -31.1521
   -31.0861 -31.0706 -31.0469 -31.0411 -31.0264 -31.0186 -31.0054 -31.0016
    -8.2870  -7.7330  -7.2146  -7.1308   5.0225   5.0763   5.3446   5.4267
     5.8855   6.3427   6.7597   7.3063   7.4602   7.5059   7.7800   8.1292
    15.0933  16.7685  17.2549  18.7354  18.9179  19.4162

          k = 0.0491 0.4088 0.2014 (  8387 PWs)   bands (ev):

   -64.2947 -64.2890 -64.2888 -64.2857 -31.2023 -31.1980 -31.1627 -31.1537
   -31.0837 -31.0709 -31.0516 -31.0478 -31.0222 -31.0153 -31.0046 -31.0017
    -8.1737  -7.6559  -7.3017  -7.1654   4.7297   5.0492   5.1748   5.6558
     5.8730   5.8864   7.1717   7.1957   7.4792   7.5558   7.7713   8.0775
    15.4104  16.9779  17.3776  18.4853  19.3922  20.0558

          k = 0.0491 0.4088 0.4029 (  8384 PWs)   bands (ev):

   -64.2930 -64.2908 -64.2878 -64.2866 -31.2012 -31.1996 -31.1610 -31.1575
   -31.0755 -31.0686 -31.0620 -31.0611 -31.0129 -31.0092 -31.0051 -31.0049
    -7.8849  -7.5490  -7.4709  -7.2814   4.6854   4.8302   4.8823   5.1262
     5.9519   6.5462   6.5817   7.2349   7.5600   7.6344   7.8352   8.0841
    16.2256  17.1260  17.3965  17.8667  19.8208  19.9363

          k = 0.2289 0.2289 0.0000 (  8386 PWs)   bands (ev):

   -64.2965 -64.2877 -64.2870 -64.2870 -31.1995 -31.1995 -31.1649 -31.1512
   -31.0918 -31.0584 -31.0584 -31.0362 -31.0240 -31.0166 -31.0166 -30.9935
    -8.4707  -7.3769  -7.3767  -7.1684   4.7304   4.7978   4.7979   6.0125
     6.7046   6.7048   7.0945   7.2309   7.2309   7.5931   7.6580   8.1098
    14.0500  16.0422  18.2786  18.2786  18.6264  18.6265

          k = 0.2289 0.2289 0.2014 (  8369 PWs)   bands (ev):

   -64.2956 -64.2885 -64.2870 -64.2870 -31.1990 -31.1989 -31.1650 -31.1534
   -31.0858 -31.0628 -31.0628 -31.0412 -31.0211 -31.0133 -31.0133 -30.9963
    -8.3423  -7.3513  -7.3511  -7.2854   4.7087   4.7087   4.8094   6.1385
     6.4904   6.4905   6.9276   7.2782   7.4007   7.4007   7.4105   8.3311
    14.4375  16.1929  18.4310  18.4310  18.8528  18.8528

          k = 0.2289 0.2289 0.4029 (  8386 PWs)   bands (ev):

   -64.2934 -64.2907 -64.2870 -64.2870 -31.1980 -31.1980 -31.1633 -31.1587
   -31.0713 -31.0690 -31.0690 -31.0545 -31.0134 -31.0090 -31.0090 -31.0039
    -8.0079  -7.6022  -7.3094  -7.3092   4.5293   4.5294   5.1696   5.9230
     6.3962   6.3963   6.4890   6.9708   7.4482   7.4483   7.7099   8.1565
    15.3371  16.1164  18.9527  18.9527  19.0795  19.0795

          k = 0.2534 0.4333 0.0000 (  8400 PWs)   bands (ev):

   -64.2929 -64.2906 -64.2902 -64.2845 -31.2055 -31.1964 -31.1590 -31.1549
   -31.0785 -31.0716 -31.0544 -31.0401 -31.0273 -31.0178 -31.0150 -30.9939
    -7.9962  -7.8487  -7.4266  -7.0424   4.8070   5.1342   5.3803   5.7793
     5.8271   6.2114   6.3875   6.8928   7.5243   7.6931   7.8424   8.0411
    15.3632  17.0838  17.0993  18.4435  19.7267  20.2974

          k = 0.2534 0.4333 0.2014 (  8394 PWs)   bands (ev):

   -64.2926 -64.2904 -64.2900 -64.2851 -31.2060 -31.1984 -31.1583 -31.1551
   -31.0767 -31.0745 -31.0631 -31.0435 -31.0206 -31.0127 -31.0124 -30.9956
    -7.8924  -7.7835  -7.4391  -7.1166   4.3618   4.6996   5.0660   5.8530
     6.0340   6.3377   6.7545   7.2412   7.3415   7.7682   7.9348   7.9360
    15.3980  16.9118  17.1892  18.5547  19.2758  19.4197

          k = 0.2534 0.4333 0.4029 (  8378 PWs)   bands (ev):

   -64.2919 -64.2911 -64.2885 -64.2866 -31.2056 -31.2027 -31.1568 -31.1557
   -31.0812 -31.0760 -31.0644 -31.0526 -31.0109 -31.0076 -31.0070 -31.0004
    -7.6350  -7.6302  -7.5015  -7.3313   3.9813   4.1222   4.9344   5.2549
     6.4302   6.9167   7.0311   7.3802   7.5895   7.6807   7.8321   7.8421
    15.6860  16.3067  17.5954  18.2495  19.1185  19.3778

          k = 0.1553-0.3842 0.0000 (  8386 PWs)   bands (ev):

   -64.2983 -64.2922 -64.2852 -64.2825 -31.2370 -31.2331 -31.1270 -31.1174
   -31.0861 -31.0640 -31.0477 -31.0468 -31.0350 -31.0139 -31.0076 -30.9981
    -8.3331  -7.4705  -7.4316  -7.0196   4.8395   4.9598   5.0320   5.1158
     5.7200   6.2481   6.6506   7.2600   7.2831   7.4268   8.4239   8.9425
    15.4997  16.9575  17.7538  18.4207  19.0788  19.3235

          k = 0.1553-0.3842 0.2014 (  8396 PWs)   bands (ev):

   -64.2977 -64.2928 -64.2849 -64.2827 -31.2375 -31.2343 -31.1262 -31.1184
   -31.0885 -31.0624 -31.0587 -31.0484 -31.0276 -31.0091 -31.0065 -30.9989
    -8.2300  -7.4954  -7.4063  -7.0389   4.1467   4.8788   4.9724   5.0912
     5.9901   5.9907   7.0266   7.0992   7.5238   7.6683   8.4781   8.8565
    15.6801  16.6588  17.5525  18.0152  19.5184  20.1551

          k = 0.1553-0.3842 0.4029 (  8387 PWs)   bands (ev):

   -64.2962 -64.2943 -64.2842 -64.2834 -31.2377 -31.2365 -31.1240 -31.1211
   -31.0873 -31.0763 -31.0580 -31.0525 -31.0147 -31.0072 -31.0039 -31.0010
    -7.9731  -7.6892  -7.2570  -7.1151   3.8904   4.2590   4.6903   4.7260
     6.1524   6.6005   7.0136   7.4729   7.5707   7.7062   8.6008   8.7141
    16.4292  16.4805  16.7634  17.7912  18.7546  19.4951

          k = 0.1799-0.1799 0.0000 (  8384 PWs)   bands (ev):

   -64.3012 -64.2924 -64.2823 -64.2823 -31.2476 -31.2475 -31.1163 -31.1020
   -31.0965 -31.0537 -31.0537 -31.0408 -31.0365 -31.0060 -31.0045 -31.0045
    -8.6619  -7.3986  -7.1183  -7.1181   4.5399   4.5871   4.5872   5.1478
     6.5202   6.9884   6.9885   7.0245   7.0247   7.7477   8.7678   9.4349
    14.0512  16.6092  18.2899  18.2899  18.4856  18.4856

          k = 0.1799-0.1799 0.2014 (  8381 PWs)   bands (ev):

   -64.3004 -64.2933 -64.2823 -64.2823 -31.2477 -31.2477 -31.1149 -31.1033
   -31.0948 -31.0538 -31.0538 -31.0511 -31.0307 -31.0049 -31.0049 -31.0047
    -8.5343  -7.5077  -7.0950  -7.0948   4.2463   4.6481   4.6481   5.7786
     5.8451   6.5132   6.5133   7.2540   7.2541   7.8996   8.8251   9.3641
    14.4805  16.9096  17.6674  17.6674  19.7232  19.8715

          k = 0.1799-0.1799 0.4029 (  8399 PWs)   bands (ev):

   -64.2982 -64.2955 -64.2823 -64.2823 -31.2479 -31.2479 -31.1113 -31.1069
   -31.0868 -31.0706 -31.0540 -31.0540 -31.0183 -31.0079 -31.0055 -31.0055
    -8.2041  -7.8092  -7.0571  -7.0569   4.2771   4.7462   4.7463   4.8724
     6.1561   6.1562   6.7291   7.2129   7.2130   7.5565   8.9810   9.1864
    15.7040  17.0653  17.4977  17.4978  18.8917  19.7321

          k = 0.4578 0.4578 0.0000 (  8396 PWs)   bands (ev):

   -64.2951 -64.2951 -64.2857 -64.2824 -31.2383 -31.2334 -31.1218 -31.1218
   -31.0665 -31.0665 -31.0664 -31.0452 -31.0303 -31.0303 -31.0044 -30.9928
    -7.8002  -7.8000  -7.5621  -7.0094   4.7192   4.7194   5.1329   5.4048
     6.0376   6.0924   6.0926   6.6937   7.3279   7.4460   8.6985   8.6986
    16.2288  17.3305  17.5948  17.5949  20.0149  20.0221

          k = 0.4578 0.4578 0.2014 (  8392 PWs)   bands (ev):

   -64.2950 -64.2950 -64.2854 -64.2827 -31.2394 -31.2353 -31.1217 -31.1216
   -31.0770 -31.0770 -31.0634 -31.0463 -31.0206 -31.0206 -31.0033 -30.9938
    -7.7690  -7.7689  -7.4886  -7.0382   4.1046   4.1047   4.7189   5.0637
     6.6011   6.7517   6.7939   6.7940   7.2650   7.6554   8.6820   8.6821
    15.7887  16.7005  17.4544  17.4544  19.7122  19.7122

          k = 0.4578 0.4578 0.4029 (  8362 PWs)   bands (ev):

   -64.2950 -64.2950 -64.2845 -64.2835 -31.2405 -31.2389 -31.1213 -31.1213
   -31.0889 -31.0889 -31.0566 -31.0502 -31.0101 -31.0101 -31.0003 -30.9967
    -7.7177  -7.7176  -7.3142  -7.1400   3.5057   3.5058   4.4037   4.5589
     6.9062   7.1023   7.3508   7.5744   7.5745   7.7572   8.6212   8.6214
    15.4017  15.7766  17.1816  17.1817  19.4033  19.4033

          k = 0.3597-0.3597 0.0000 (  8398 PWs)   bands (ev):

   -64.2982 -64.2948 -64.2826 -64.2826 -31.2488 -31.2488 -31.1110 -31.1056
   -31.0786 -31.0573 -31.0543 -31.0543 -31.0370 -31.0255 -30.9980 -30.9980
    -8.1416  -7.6403  -7.1766  -7.1764   4.5619   4.9020   4.9021   5.0566
     5.4111   6.6291   6.8266   6.8268   7.0198   7.0199   8.9486   9.2027
    16.4319  17.3619  17.3619  17.9374  19.6121  20.1001

          k = 0.3597-0.3597 0.2014 (  8383 PWs)   bands (ev):

   -64.2978 -64.2951 -64.2826 -64.2826 -31.2502 -31.2502 -31.1105 -31.1061
   -31.0864 -31.0705 -31.0535 -31.0535 -31.0268 -31.0161 -30.9980 -30.9980
    -8.0673  -7.6577  -7.1508  -7.1506   3.8823   4.3824   4.6357   4.6357
     6.3098   6.8536   6.8538   7.2533   7.2604   7.2605   8.9707   9.1762
    16.3485  16.5811  16.5812  17.9259  19.5521  19.8894

          k = 0.3597-0.3597 0.4029 (  8381 PWs)   bands (ev):

   -64.2970 -64.2959 -64.2826 -64.2826 -31.2523 -31.2523 -31.1091 -31.1074
   -31.0931 -31.0873 -31.0522 -31.0522 -31.0130 -31.0086 -30.9981 -30.9981
    -7.8955  -7.7365  -7.1086  -7.1084   3.4181   3.6155   4.2845   4.2846
     6.8909   6.8911   7.3405   7.5796   7.5797   7.7354   9.0305   9.1089
    15.7994  15.7995  16.4947  17.2875  19.0959  19.4595

     the Fermi energy is    10.0547 ev

!    total energy              =    -608.36433075 Ry
     estimated scf accuracy    <       0.00000004 Ry
     smearing contrib. (-TS)   =      -0.00000000 Ry
     internal energy E=F+TS    =    -608.36433075 Ry

     The total energy is F=E-TS. E is the sum of the following terms:
     one-electron contribution =    -292.56512378 Ry
     hartree contribution      =     164.09158166 Ry
     xc contribution           =     -97.98841638 Ry
     ewald contribution        =    -381.79231419 Ry
     DFT-D3 Dispersion         =      -0.11005807 Ry

     convergence has been achieved in   8 iterations

     Forces acting on atoms (cartesian axes, Ry/au):

     atom    1 type  1   force =     0.00000000    0.00000000    0.00000000
     atom    2 type  1   force =     0.00000000    0.00000000    0.00000000
     atom    3 type  1   force =     0.00000000    0.00000000    0.00000000
     atom    4 type  1   force =     0.00000000    0.00000000    0.00000000
     atom    5 type  2   force =     0.00000000    0.00000000    0.00000000
     atom    6 type  2   force =     0.00000000    0.00000000    0.00000000
     atom    7 type  2   force =     0.00000000    0.00000000    0.00000000
     atom    8 type  2   force =     0.00000000    0.00000000    0.00000000

     Total force =     0.000000     Total SCF correction =     0.000000

     BFGS Geometry Optimization

     bfgs converged in   1 scf cycles and   0 bfgs steps
     (criteria: energy <  1.0E-04 Ry, force <  1.0E-03 Ry/Bohr)

     End of BFGS Geometry Optimization

     Final energy   =    -608.3643307523 Ry
Begin final coordinates

ATOMIC_POSITIONS (angstrom)
Mg            0.0000000000        0.0000000000        0.0000000000
Mg           -0.2526600000        2.1055000000        2.1055000000
Mg            2.1055000000       -0.2526600000        2.1055000000
Mg            1.8528400000        1.8528400000        0.0000000000
O             1.8528400000        1.8528400000        2.1055000000
O             2.1055000000       -0.2526600000        0.0000000000
O            -0.2526600000        2.1055000000        0.0000000000
O             0.0000000000        0.0000000000        2.1055000000
End final coordinates


 
     init_run     :      0.70s CPU      0.73s WALL (       1 calls)
     electrons    :     17.05s CPU     17.39s WALL (       1 calls)
     forces       :      4.60s CPU      4.61s WALL (       1 calls)

     Called by init_run:
     wfcinit      :      0.50s CPU      0.53s WALL (       1 calls)
     potinit      :      0.06s CPU      0.06s WALL (       1 calls)
     hinit0       :      0.10s CPU      0.10s WALL (       1 calls)

     Called by electrons:
     c_bands      :     11.55s CPU     11.82s WALL (       8 calls)
     sum_band     :      1.90s CPU      1.96s WALL (       8 calls)
     v_of_rho     :      0.07s CPU      0.08s WALL (       9 calls)
     mix_rho      :      0.01s CPU      0.01s WALL (       8 calls)

     Called by c_bands:
     init_us_2    :      0.14s CPU      0.15s WALL (     486 calls)
     cegterg      :     11.10s CPU     11.34s WALL (     216 calls)

     Called by *egterg:
     cdiaghg      :      1.44s CPU      1.45s WALL (     825 calls)
     h_psi        :      9.30s CPU      9.54s WALL (     852 calls)
     g_psi        :      0.03s CPU      0.03s WALL (     609 calls)

     Called by h_psi:
     h_psi:calbec :      0.29s CPU      0.30s WALL (     852 calls)
     vloc_psi     :      8.72s CPU      8.95s WALL (     852 calls)
     add_vuspsi   :      0.24s CPU      0.25s WALL (     852 calls)

     General routines
     calbec       :      0.33s CPU      0.34s WALL (     960 calls)
     fft          :      0.07s CPU      0.07s WALL (     100 calls)
     ffts         :      0.00s CPU      0.00s WALL (       8 calls)
     fftw         :      9.90s CPU     10.17s WALL (   50164 calls)
 
     Parallel routines
     fft_scatt_xy :      1.36s CPU      1.39s WALL (   50272 calls)
     fft_scatt_yz :      5.08s CPU      5.22s WALL (   50272 calls)
 
     PWSCF        :     22.49s CPU     22.90s WALL

 
   This run was terminated on:  13:34:13   4Feb2024            

=------------------------------------------------------------------------------=
   JOB DONE.
=------------------------------------------------------------------------------=
