# total energy = -9137.35552514 eV	

CRYSTAL	
PRIMVEC	
		5.33299967		0.00000000		0.00000000	
		-2.66649983		4.61851637		0.00000000	
		0.00000000		0.00000000		7.69020152	
PRIMCOORD
   14 1	
Mg		1.77428899		0.00000000		3.50673100		 0.00025251		-0.00000000		 0.00005615	
Mg		-0.88714503		1.53658013		3.50673100		-0.00012625		 0.00021867		 0.00005615	
Mg		1.77935481		3.08193357		3.50673100		-0.00012625		-0.00021867		 0.00005615	
Si		0.00000000		3.07900896		0.59214482		0.00000000		-0.00000000		-0.00026401	
Si		2.66649983		1.53950475		0.59214482		0.00000000		-0.00000000		-0.00026401	
O		0.00000000		3.07900896		2.24399987		-0.00000000		0.00000000		-0.00062038	
O		2.66649983		1.53950475		2.24399987		-0.00000000		-0.00000000		-0.00062038	
O		2.67183283		0.00000000		7.63636755		-0.00020040		0.00000000		 0.00059690	
O		-1.33591695		2.31387496		7.63636755		 0.00010019		-0.00017354		 0.00059690	
O		1.33058395		2.30463767		7.63636755		 0.00010019		 0.00017354		 0.00059690	
O		3.53044578		0.00000000		4.55259783		-0.00030484		-0.00000000		-0.00010482	
O		-1.76522289		3.05745564		4.55259783		 0.00015243		-0.00026400		-0.00010482	
O		0.90127694		1.56105806		4.55259783		 0.00015243		 0.00026400		-0.00010482	
O		0.00000000		0.00000000		2.33013101		0.00000000		-0.00000000		 0.00012412	
