# total energy = -9137.5673865 eV	

CRYSTAL	
PRIMVEC	
		5.33299967		0.00000000		0.00000000	
		-2.66649983		4.61851637		0.00000000	
		0.00000000		0.00000000		6.95779934	
PRIMCOORD
   14 1	
Mg		1.77428899		0.00000000		3.17275669		 0.00013172		-0.00000000		 0.00001878	
Mg		-0.88714503		1.53658013		3.17275669		-0.00006587		 0.00011407		 0.00001878	
Mg		1.77935481		3.08193357		3.17275669		-0.00006587		-0.00011407		 0.00001878	
Si		0.00000000		3.07900896		0.53575101		-0.00000000		0.00000000		 0.00016889	
Si		2.66649983		1.53950475		0.53575101		0.00000000		0.00000000		 0.00016889	
O		0.00000000		3.07900896		2.03028577		-0.00000000		0.00000000		-0.00014432	
O		2.66649983		1.53950475		2.03028577		-0.00000000		-0.00000000		-0.00014432	
O		2.67183283		0.00000000		6.90909466		-0.00018390		0.00000000		 0.00001736	
O		-1.33591695		2.31387496		6.90909466		 0.00009195		-0.00015926		 0.00001736	
O		1.33058395		2.30463767		6.90909466		 0.00009195		 0.00015926		 0.00001736	
O		3.53044578		0.00000000		4.11901749		-0.00021466		0.00000000		-0.00006694	
O		-1.76522289		3.05745564		4.11901749		 0.00010733		-0.00018590		-0.00006694	
O		0.90127694		1.56105806		4.11901749		 0.00010733		 0.00018590		-0.00006694	
O		0.00000000		0.00000000		2.10821263		-0.00000000		-0.00000000		 0.00004327	
