# total energy = -11146.4964791 eV	

CRYSTAL	
PRIMVEC	
		7.44099980		0.00000000		0.00000000	
		0.00000000		4.40999782		0.00000000	
		0.00000000		0.00000000		8.70660225	
PRIMCOORD
   12 1	
Ca		0.14547229		1.10250020		5.92632104		 0.00026977		0.00000000		-0.00031620	
Ca		7.29552751		3.30749985		2.78027823		-0.00026977		-0.00000000		 0.00031620	
Ca		3.57502761		3.30749985		1.57302215		-0.00026977		0.00000000		-0.00031620	
Ca		3.86597219		1.10250020		7.13357787		 0.00026977		0.00000000		 0.00031620	
Si		2.01346014		1.10250020		3.35726526		 0.00064308		0.00000000		-0.00038837	
Si		5.42753966		3.30749985		5.34933475		-0.00064308		0.00000000		 0.00038837	
Si		1.70703976		3.30749985		7.71056490		-0.00064308		0.00000000		-0.00038837	
Si		5.73396003		1.10250020		0.99603512		 0.00064308		-0.00000000		 0.00038837	
Mg		1.07254571		1.10250020		0.55565517		 0.00009314		0.00000000		 0.00047863	
Mg		6.36845409		3.30749985		8.15094484		-0.00009314		0.00000000		-0.00047863	
Mg		2.64795419		3.30749985		4.90895481		-0.00009314		0.00000000		 0.00047863	
Mg		4.79304561		1.10250020		3.79764521		 0.00009314		0.00000000		-0.00047863	
