# total energy = -11146.7159437 eV	

CRYSTAL	
PRIMVEC	
		7.44099980		0.00000000		0.00000000	
		0.00000000		4.40999782		0.00000000	
		0.00000000		0.00000000		8.08469837	
PRIMCOORD
   12 1	
Ca		0.14547229		1.10250020		5.50301298		-0.00052316		0.00000000		 0.00031075	
Ca		7.29552751		3.30749985		2.58168688		 0.00052316		0.00000000		-0.00031075	
Ca		3.57502761		3.30749985		1.46066305		 0.00052316		-0.00000000		 0.00031075	
Ca		3.86597219		1.10250020		6.62403680		-0.00052316		0.00000000		-0.00031075	
Si		2.01346014		1.10250020		3.11745970		 0.00044414		0.00000000		 0.00025323	
Si		5.42753966		3.30749985		4.96724016		-0.00044414		0.00000000		-0.00025323	
Si		1.70703976		3.30749985		7.15980962		-0.00044414		0.00000000		 0.00025323	
Si		5.73396003		1.10250020		0.92489023		 0.00044414		0.00000000		-0.00025323	
Mg		1.07254571		1.10250020		0.51596562		 0.00082436		0.00000000		 0.00038097	
Mg		6.36845409		3.30749985		7.56873349		-0.00082436		-0.00000000		-0.00038097	
Mg		2.64795419		3.30749985		4.55831481		-0.00082436		-0.00000000		 0.00038097	
Mg		4.79304561		1.10250020		3.52638356		 0.00082436		0.00000000		-0.00038097	
