# total energy = -11146.6502718 eV	

CRYSTAL	
PRIMVEC	
		7.44099980		0.00000000		0.00000000	
		0.00000000		4.40999782		0.00000000	
		0.00000000		0.00000000		8.49930343	
PRIMCOORD
   12 1	
Ca		0.14547229		1.10250020		5.78521885		 0.00075427		0.00000000		-0.00046007	
Ca		7.29552751		3.30749985		2.71408086		-0.00075427		0.00000000		 0.00046007	
Ca		3.57502761		3.30749985		1.53556862		-0.00075427		0.00000000		-0.00046007	
Ca		3.86597219		1.10250020		6.96373109		 0.00075427		-0.00000000		 0.00046007	
Si		2.01346014		1.10250020		3.27732958		 0.00092238		0.00000000		-0.00000385	
Si		5.42753966		3.30749985		5.22197014		-0.00092238		0.00000000		 0.00000385	
Si		1.70703976		3.30749985		7.52697981		-0.00092238		0.00000000		-0.00000385	
Si		5.73396003		1.10250020		0.97231991		 0.00092238		0.00000000		 0.00000385	
Mg		1.07254571		1.10250020		0.54242507		-0.00044079		0.00000000		-0.00085150	
Mg		6.36845409		3.30749985		7.95687390		 0.00044079		0.00000000		 0.00085150	
Mg		2.64795419		3.30749985		4.79207456		 0.00044079		0.00000000		-0.00085150	
Mg		4.79304561		1.10250020		3.70722516		-0.00044079		0.00000000		 0.00085150	
