# total energy = -18507.1702986 eV

CRYSTAL
PRIMVEC
		7.02599785		0.00000000		0.56207842
		0.00000000		6.22800086		0.00000000
		-0.09521747		0.00000000		4.20505423
PRIMECORD
   30 1
Mg		0.34925479		1.55699986		2.29435695		-0.00068312		-0.00000000		-0.00024673
Mg		6.58152771		4.67099959		2.47277570		 0.00068312		-0.00000000		 0.00024673
Mg		5.04166614		1.55699986		4.26635105		 0.00065720		-0.00000000		-0.00015720
Mg		1.88911705		4.67099959		0.50078089		-0.00065720		-0.00000000		 0.00015720
Mg		2.82045305		1.55699986		0.40256783		 0.00037001		-0.00000000		 0.00019848
Mg		4.11032874		4.67099959		4.36456412		-0.00037001		-0.00000000		-0.00019848
Si		0.00000000		0.00000000		0.00000000		0.00000000		0.00000000		0.00000000
Si		0.00000000		3.11399972		0.00000000		0.00000000		0.00000000		0.00000000
Si		2.26573391		3.12645574		2.51928981		 0.00061107		-0.00014112		-0.00024443
Si		4.66504788		3.10154371		2.24784213		-0.00061107		 0.00014112		 0.00024443
Si		4.66504788		0.01245602		2.24784213		-0.00061107		-0.00014112		 0.00024443
Si		2.26573391		6.21554414		2.51928981		 0.00061107		 0.00014112		-0.00024443
O		5.55126182		3.48768020		1.03387469		 0.00024822		-0.00036047		-0.00015987
O		1.37952067		2.74031995		3.73325656		-0.00024822		 0.00036047		 0.00015987
O		1.37952067		0.37367977		3.73325656		-0.00024822		-0.00036047		 0.00015987
O		5.55126182		5.85431968		1.03387469		 0.00024822		 0.00036047		-0.00015987
O		6.08538258		2.74654796		3.24612921		 0.00009015		 0.00067803		-0.00023559
O		0.84539991		3.48145219		1.52100274		-0.00009015		-0.00067803		 0.00023559
O		0.84539991		5.86054769		1.52100274		-0.00009015		 0.00067803		 0.00023559
O		6.08538258		0.36745176		3.24612921		 0.00009015		-0.00067803		-0.00023559
O		2.10910825		1.55699986		1.97596379		-0.00065098		0.00000000		-0.00015157
O		4.82167495		4.67099959		2.79116816		 0.00065098		0.00000000		 0.00015157
O		3.19476999		3.45654016		1.27926003		 0.00025523		 0.00014322		 0.00057475
O		3.73601179		2.77145999		3.48787192		-0.00025523		-0.00014322		-0.00057475
O		3.73601179		0.34253973		3.48787192		-0.00025523		 0.00014322		-0.00057475
O		3.19476999		5.88545972		1.27926003		 0.00025523		-0.00014322		 0.00057475
O		4.49494065		1.55699986		1.67816126		-0.00008142		0.00000000		-0.00047999
O		2.43584184		4.67099959		3.08897069		 0.00008142		0.00000000		 0.00047999
O		6.86038260		1.55699986		1.03749970		-0.00032284		0.00000000		-0.00034388
O		0.07039989		4.67099959		3.72963224		 0.00032284		0.00000000		 0.00034388
