# total energy = -18508.8679852 eV

CRYSTAL
PRIMVEC
		7.02600240		0.00000000		1.12416351
		0.00000000		6.22800007		0.00000000
		0.24396449		0.00000000		4.17030076
PRIMECORD
   30 1
Mg		0.53173615		1.55699966		2.30769763		 0.00059159		0.00000000		-0.00030943
Mg		6.73823074		4.67099969		2.98676167		-0.00059159		0.00000000		 0.00030943
Mg		5.35269784		1.55699966		4.64480163		 0.00036004		0.00000000		-0.00035374
Mg		1.91726905		4.67099969		0.64965766		-0.00036004		-0.00000000		 0.00035374
Mg		2.83469922		1.55699966		0.62706496		-0.00002667		-0.00000000		-0.00024287
Mg		4.43526768		4.67099969		4.66739505		 0.00002667		-0.00000000		 0.00024287
Si		0.00000000		0.00000000		0.00000000		0.00000000		0.00000000		0.00000000
Si		0.00000000		3.11400003		0.00000000		0.00000000		0.00000000		0.00000000
Si		2.45398169		3.12645619		2.68548860		-0.00013747		 0.00007010		-0.00010423
Si		4.81598520		3.10154388		2.60897069		 0.00013747		-0.00007010		 0.00010423
Si		4.81598520		0.01245616		2.60897069		 0.00013747		 0.00007010		 0.00010423
Si		2.45398169		6.21554391		2.68548860		-0.00013747		-0.00007010		-0.00010423
O		5.59874713		3.48767975		1.47417682		-0.00008100		 0.00005915		 0.00047141
O		1.67121905		2.74031960		3.82028318		 0.00008100		-0.00005915		-0.00047141
O		1.67121905		0.37367972		3.82028318		 0.00008100		 0.00005915		-0.00047141
O		5.59874713		5.85431963		1.47417682		-0.00008100		-0.00005915		 0.00047141
O		6.30754770		2.74654768		3.71518570		-0.00006302		-0.00028473		 0.00002788
O		0.96241919		3.48145167		1.57927360		 0.00006302		 0.00028473		-0.00002788
O		0.96241919		5.86054771		1.57927360		 0.00006302		-0.00028473		-0.00002788
O		6.30754770		0.36745164		3.71518570		-0.00006302		 0.00028473		 0.00002788
O		2.25461772		1.55699966		2.13305172		-0.00037976		-0.00000000		 0.00049519
O		5.01534917		4.67099969		3.16140757		 0.00037976		-0.00000000		-0.00049519
O		3.27719162		3.45654007		1.52824790		 0.00031848		 0.00012265		-0.00032277
O		3.99277456		2.77145999		3.76621211		-0.00031848		-0.00012265		 0.00032277
O		3.99277456		0.34254004		3.76621211		-0.00031848		 0.00012265		 0.00032277
O		3.27719162		5.88546003		1.52824790		 0.00031848		-0.00012265		-0.00032277
O		4.60110618		1.55699966		2.02926275		-0.00030865		0.00000000		 0.00006087
O		2.66886071		4.67099969		3.26519654		 0.00030865		0.00000000		-0.00006087
O		6.89972745		1.55699966		1.58318278		 0.00034758		-0.00000000		-0.00025195
O		0.37023873		4.67099969		3.71127723		-0.00034758		-0.00000000		 0.00025195
