# total energy = -24715.8482024 eV

CRYSTAL
PRIMVEC
		9.43897499		0.00000000		0.00000000
		0.00000000		8.73899948		0.00000000
		1.57405291		0.00000000		4.94514507
PRIMECORD
   40 1
Si		2.29856881		3.58298960		0.99397504		 0.00041066		 0.00037324		 0.00033107
Si		8.71445815		5.15600988		3.95117192		-0.00041066		-0.00037324		-0.00033107
Si		3.20794514		7.95249029		1.47859939		-0.00041066		 0.00037324		-0.00033107
Si		7.80508276		0.78651014		3.46654757		 0.00041066		-0.00037324		 0.00033107
Si		7.92743170		3.58298960		1.47859939		-0.00025141		 0.00003392		-0.00043921
Si		3.08559526		5.15600988		3.46654757		 0.00025141		-0.00003392		 0.00043921
Si		7.01805630		7.95249029		0.99397504		 0.00025141		 0.00003392		 0.00043921
Si		3.99497065		0.78651014		3.95117192		-0.00025141		-0.00003392		-0.00043921
O		3.93299529		3.67038035		0.49451545		 0.00045361		 0.00029351		-0.00006885
O		7.08003167		5.06862102		4.45063245		-0.00045361		-0.00029351		 0.00006885
O		1.57351772		8.03988009		1.97805897		-0.00045361		 0.00029351		 0.00006885
O		9.43950924		0.69912034		2.96708799		 0.00045361		-0.00029351		-0.00006885
O		8.38666992		2.18474987		0.78627794		 0.00007418		-0.00027985		-0.00027434
O		2.62635704		6.55424961		4.15886902		-0.00007418		 0.00027985		 0.00027434
O		6.55881808		6.55424961		1.68629459		-0.00007418		-0.00027985		 0.00027434
O		4.45420888		2.18474987		3.25885237		 0.00007418		 0.00027985		-0.00027434
O		2.91119604		4.28210994		4.69788923		 0.00054006		-0.00001979		-0.00081726
O		8.10183092		4.45688955		0.24725678		-0.00054006		 0.00001979		 0.00081726
O		4.16936988		8.65160968		2.71983121		-0.00054006		-0.00001979		 0.00081726
O		6.84365708		0.08738981		2.22531575		 0.00054006		 0.00001979		-0.00081726
O		8.88885832		4.28210994		2.71983121		-0.00024140		 0.00018156		 0.00060069
O		2.12416959		4.45688955		2.22531575		 0.00024140		-0.00018156		-0.00060069
O		7.63068259		8.65160968		4.69788923		 0.00024140		 0.00018156		-0.00060069
O		3.38234436		0.08738981		0.24725678		-0.00024140		-0.00018156		 0.00060069
O		1.83932964		2.18474987		1.68629459		 0.00028359		-0.00002929		 0.00015552
O		9.17369732		6.55424961		3.25885237		-0.00028359		 0.00002929		-0.00015552
O		3.66718337		6.55424961		0.78627794		-0.00028359		-0.00002929		-0.00015552
O		7.34584359		2.18474987		4.15886807		 0.00028359		 0.00002929		 0.00015552
O		6.29300616		3.67038035		1.97805897		-0.00012327		 0.00031123		-0.00033456
O		4.72002174		5.06862102		2.96708799		 0.00012327		-0.00031123		 0.00033456
O		8.65248184		8.03988009		0.49451545		 0.00012327		 0.00031123		 0.00033456
O		2.36054512		0.69912034		4.45063245		-0.00012327		-0.00031123		-0.00033456
Mg		0.39351276		0.79524875		1.23628674		-0.00003737		 0.00020405		 0.00020462
Mg		1.18053921		7.94375074		3.70886022		 0.00003737		-0.00020405		-0.00020462
Mg		5.11300120		5.16474943		1.23628674		 0.00003737		 0.00020405		-0.00020462
Mg		5.90002671		3.57425100		3.70886022		-0.00003737		-0.00020405		 0.00020462
Mg		0.31481058		6.02990983		0.98902901		 0.00034558		-0.00042461		-0.00006232
Mg		1.25924233		2.70908965		3.95611700		-0.00034558		 0.00042461		 0.00006232
Mg		5.19170337		1.66041009		1.48354447		-0.00034558		-0.00042461		 0.00006232
Mg		5.82132359		7.07859034		3.46160344		 0.00034558		 0.00042461		-0.00006232
