# total energy = -41274.2980598 eV	

CRYSTAL	
PRIMVEC	
		7.91699998		0.00000000		0.00000000	
		0.00000000		8.11999978		0.00000000	
		0.00000000		0.00000000		8.11999978	
PRIMCOORD
   56 1	
Si		0.98962500		1.01499977		1.01499977		-0.00000003		-0.00000007		-0.00000007	
Si		6.92737498		7.10500000		7.10500000		 0.00000003		 0.00000007		 0.00000007	
Si		4.94812499		1.01499977		5.07499966		 0.00000016		 0.00000006		 0.00000009	
Si		2.96887499		7.10500000		3.04500011		-0.00000016		-0.00000006		-0.00000009	
Si		0.98962500		5.07499966		5.07499966		-0.00000014		-0.00000012		-0.00000012	
Si		6.92737498		3.04500011		3.04500011		 0.00000014		 0.00000012		 0.00000012	
Si		4.94812499		5.07499966		1.01499977		 0.00000016		 0.00000009		 0.00000006	
Si		2.96887499		3.04500011		7.10500000		-0.00000016		-0.00000009		-0.00000006	
Mg		3.95849999		4.05999989		4.05999989		0.00000000		0.00000000		0.00000000	
Mg		1.97925000		6.09000023		0.00000000		 0.00000074		 0.00000048		 0.00000014	
Mg		5.93774999		2.03000034		0.00000000		-0.00000074		-0.00000048		-0.00000014	
Mg		5.93774999		0.00000000		2.03000034		-0.00000074		-0.00000014		-0.00000048	
Mg		1.97925000		0.00000000		6.09000023		 0.00000074		 0.00000014		 0.00000048	
Mg		0.00000000		2.03000034		6.09000023		0.00000000		 0.00000012		-0.00000012	
Mg		0.00000000		6.09000023		2.03000034		0.00000000		-0.00000012		 0.00000012	
Mg		3.95849999		0.00000000		0.00000000		0.00000000		0.00000000		0.00000000	
Mg		1.97925000		2.03000034		4.05999989		 0.00000049		 0.00000055		-0.00000001	
Mg		5.93774999		6.09000023		4.05999989		-0.00000049		-0.00000055		 0.00000001	
Mg		5.93774999		4.05999989		6.09000023		-0.00000049		 0.00000001		-0.00000055	
Mg		1.97925000		4.05999989		2.03000034		 0.00000049		-0.00000001		 0.00000055	
Mg		0.00000000		4.05999989		0.00000000		0.00000000		0.00000000		0.00000000	
Mg		3.95849999		2.03000034		2.03000034		-0.00000018		-0.00000010		-0.00000010	
Mg		3.95849999		6.09000023		6.09000023		 0.00000018		 0.00000010		 0.00000010	
Mg		0.00000000		0.00000000		4.05999989		0.00000000		0.00000000		0.00000000	
O		1.91274720		1.96179222		1.96179222		-0.00010081		-0.00009791		-0.00009791	
O		6.00425199		6.15820835		6.15820835		 0.00010081		 0.00009791		 0.00009791	
O		4.02500200		0.06820812		6.02179211		 0.00010046		 0.00009793		-0.00009804	
O		3.89199719		8.05179166		2.09820767		-0.00010046		-0.00009793		 0.00009804	
O		0.06650280		6.02179211		4.12820801		 0.00010099		-0.00009802		 0.00009833	
O		7.85049718		2.09820767		3.99179177		-0.00010099		 0.00009802		-0.00009833	
O		5.87124719		4.12820801		0.06820812		-0.00010080		 0.00009824		 0.00009832	
O		2.04575279		3.99179177		8.05179166		 0.00010080		-0.00009824		-0.00009832	
O		7.85049718		3.99179177		2.09820767		-0.00010099		-0.00009833		 0.00009802	
O		0.06650280		4.12820801		6.02179211		 0.00010099		 0.00009833		-0.00009802	
O		3.89199719		2.09820767		8.05179166		-0.00010046		 0.00009804		-0.00009793	
O		4.02500200		6.02179211		0.06820812		 0.00010046		-0.00009804		 0.00009793	
O		2.04575279		8.05179166		3.99179177		 0.00010080		-0.00009832		-0.00009824	
O		5.87124719		0.06820812		4.12820801		-0.00010080		 0.00009832		 0.00009824	
O		1.91274720		6.02179211		6.02179211		-0.00010109		-0.00009809		-0.00009809	
O		6.00425199		2.09820767		2.09820767		 0.00010109		 0.00009809		 0.00009809	
O		4.02500200		4.12820801		1.96179222		 0.00010065		 0.00009800		-0.00009803	
O		3.89199719		3.99179177		6.15820835		-0.00010065		-0.00009800		 0.00009803	
O		0.06650280		1.96179222		0.06820812		 0.00010104		-0.00009817		 0.00009844	
O		7.85049718		6.15820835		8.05179166		-0.00010104		 0.00009817		-0.00009844	
O		7.85049718		8.05179166		6.15820835		-0.00010104		-0.00009844		 0.00009817	
O		0.06650280		0.06820812		1.96179222		 0.00010104		 0.00009844		-0.00009817	
O		3.89199719		6.15820835		3.99179177		-0.00010065		 0.00009803		-0.00009800	
O		4.02500200		1.96179222		4.12820801		 0.00010065		-0.00009803		 0.00009800	
O		5.87124719		1.96179222		6.02179211		-0.00010074		-0.00009801		-0.00009799	
O		2.04575279		6.15820835		2.09820767		 0.00010074		 0.00009801		 0.00009799	
O		1.91274720		4.12820801		4.12820801		-0.00010044		 0.00009782		 0.00009782	
O		6.00425199		3.99179177		3.99179177		 0.00010044		-0.00009782		-0.00009782	
O		6.00425199		8.05179166		8.05179166		 0.00010057		-0.00009774		-0.00009774	
O		1.91274720		0.06820812		0.06820812		-0.00010057		 0.00009774		 0.00009774	
O		5.87124719		6.02179211		1.96179222		-0.00010074		-0.00009799		-0.00009801	
O		2.04575279		2.09820767		6.15820835		 0.00010074		 0.00009799		 0.00009801	
