# total energy = -41273.2112259 eV	

CRYSTAL	
PRIMVEC	
		7.71399967		0.00000000		0.00000000	
		0.00000000		8.12000290		0.00000000	
		0.00000000		0.00000000		8.12000290	
PRIMCOORD
   56 1	
Si		0.96424996		1.01499959		1.01499959		-0.00000023		-0.00000009		-0.00000009	
Si		6.74974971		7.10499945		7.10499945		 0.00000023		 0.00000009		 0.00000009	
Si		4.82124979		1.01499959		5.07499950		 0.00000017		-0.00000008		 0.00000009	
Si		2.89274988		7.10499945		3.04499954		-0.00000017		 0.00000008		-0.00000009	
Si		0.96424996		5.07499950		5.07499950		-0.00000022		 0.00000009		 0.00000009	
Si		6.74974971		3.04499954		3.04499954		 0.00000022		-0.00000009		-0.00000009	
Si		4.82124979		5.07499950		1.01499959		 0.00000017		 0.00000009		-0.00000008	
Si		2.89274988		3.04499954		7.10499945		-0.00000017		-0.00000009		 0.00000008	
Mg		3.85699983		4.05999991		4.05999991		0.00000000		0.00000000		0.00000000	
Mg		1.92849992		6.08999986		0.00000000		-0.00000010		-0.00000008		 0.00000006	
Mg		5.78549975		2.02999995		0.00000000		 0.00000010		 0.00000008		-0.00000006	
Mg		5.78549975		0.00000000		2.02999995		 0.00000010		-0.00000006		 0.00000008	
Mg		1.92849992		0.00000000		6.08999986		-0.00000010		 0.00000006		-0.00000008	
Mg		0.00000000		2.02999995		6.08999986		0.00000000		 0.00000003		-0.00000003	
Mg		0.00000000		6.08999986		2.02999995		0.00000000		-0.00000003		 0.00000003	
Mg		3.85699983		0.00000000		0.00000000		0.00000000		0.00000000		0.00000000	
Mg		1.92849992		2.02999995		4.05999991		-0.00000008		-0.00000002		 0.00000004	
Mg		5.78549975		6.08999986		4.05999991		 0.00000008		 0.00000002		-0.00000004	
Mg		5.78549975		4.05999991		6.08999986		 0.00000008		-0.00000004		 0.00000002	
Mg		1.92849992		4.05999991		2.02999995		-0.00000008		 0.00000004		-0.00000002	
Mg		0.00000000		4.05999991		0.00000000		0.00000000		0.00000000		0.00000000	
Mg		3.85699983		2.02999995		2.02999995		-0.00000004		 0.00000006		 0.00000006	
Mg		3.85699983		6.08999986		6.08999986		 0.00000004		-0.00000006		-0.00000006	
Mg		0.00000000		0.00000000		4.05999991		0.00000000		0.00000000		0.00000000	
O		1.86370155		1.96179200		1.96179200		-0.00010472		-0.00011210		-0.00011210	
O		5.85029658		6.15820782		6.15820782		 0.00010472		 0.00011210		 0.00011210	
O		3.92179666		0.06820796		6.02179190		 0.00010486		 0.00011232		-0.00011226	
O		3.79220147		8.05179186		2.09820791		-0.00010486		-0.00011232		 0.00011226	
O		0.06479837		6.02179190		4.12820786		 0.00010485		-0.00011210		 0.00011208	
O		7.64920284		2.09820791		3.99179195		-0.00010485		 0.00011210		-0.00011208	
O		5.72070293		4.12820786		0.06820796		-0.00010496		 0.00011212		 0.00011218	
O		1.99329829		3.99179195		8.05179186		 0.00010496		-0.00011212		-0.00011218	
O		7.64920284		3.99179195		2.09820791		-0.00010485		-0.00011208		 0.00011210	
O		0.06479837		4.12820786		6.02179190		 0.00010485		 0.00011208		-0.00011210	
O		3.79220147		2.09820791		8.05179186		-0.00010486		 0.00011226		-0.00011232	
O		3.92179666		6.02179190		0.06820796		 0.00010486		-0.00011226		 0.00011232	
O		1.99329829		8.05179186		3.99179195		 0.00010496		-0.00011218		-0.00011212	
O		5.72070293		0.06820796		4.12820786		-0.00010496		 0.00011218		 0.00011212	
O		1.86370155		6.02179190		6.02179190		-0.00010479		-0.00011222		-0.00011222	
O		5.85029658		2.09820791		2.09820791		 0.00010479		 0.00011222		 0.00011222	
O		3.92179666		4.12820786		1.96179200		 0.00010476		 0.00011216		-0.00011223	
O		3.79220147		3.99179195		6.15820782		-0.00010476		-0.00011216		 0.00011223	
O		0.06479837		1.96179200		0.06820796		 0.00010484		-0.00011211		 0.00011214	
O		7.64920284		6.15820782		8.05179186		-0.00010484		 0.00011211		-0.00011214	
O		7.64920284		8.05179186		6.15820782		-0.00010484		-0.00011214		 0.00011211	
O		0.06479837		0.06820796		1.96179200		 0.00010484		 0.00011214		-0.00011211	
O		3.79220147		6.15820782		3.99179195		-0.00010476		 0.00011223		-0.00011216	
O		3.92179666		1.96179200		4.12820786		 0.00010476		-0.00011223		 0.00011216	
O		5.72070293		1.96179200		6.02179190		-0.00010509		-0.00011218		-0.00011217	
O		1.99329829		6.15820782		2.09820791		 0.00010509		 0.00011218		 0.00011217	
O		1.86370155		4.12820786		4.12820786		-0.00010459		 0.00011206		 0.00011206	
O		5.85029658		3.99179195		3.99179195		 0.00010459		-0.00011206		-0.00011206	
O		5.85029658		8.05179186		8.05179186		 0.00010467		-0.00011219		-0.00011219	
O		1.86370155		0.06820796		0.06820796		-0.00010467		 0.00011219		 0.00011219	
O		5.72070293		6.02179190		1.96179200		-0.00010509		-0.00011217		-0.00011218	
O		1.99329829		2.09820791		6.15820782		 0.00010509		 0.00011217		 0.00011218	
