# total energy = -41274.2960027 eV	

CRYSTAL	
PRIMVEC	
		8.32300007		0.00000000		0.00000000	
		0.00000000		8.12000210		0.00000000	
		0.00000000		0.00000000		8.12000210	
PRIMCOORD
   56 1	
Si		1.04037501		1.01499985		1.01499985		-0.00000160		-0.00000047		-0.00000047	
Si		7.28262507		7.10499976		7.10499976		 0.00000160		 0.00000047		 0.00000047	
Si		5.20187505		1.01499985		5.07500007		 0.00000159		-0.00000047		 0.00000048	
Si		3.12112503		7.10499976		3.04500037		-0.00000159		 0.00000047		-0.00000048	
Si		1.04037501		5.07500007		5.07500007		-0.00000154		 0.00000048		 0.00000048	
Si		7.28262507		3.04500037		3.04500037		 0.00000154		-0.00000048		-0.00000048	
Si		5.20187505		5.07500007		1.01499985		 0.00000159		 0.00000048		-0.00000047	
Si		3.12112503		3.04500037		7.10499976		-0.00000159		-0.00000048		 0.00000047	
Mg		4.16150004		4.06000022		4.06000022		0.00000000		0.00000000		0.00000000	
Mg		2.08075002		6.08999991		0.00000000		-0.00000052		 0.00000011		-0.00000005	
Mg		6.24225006		2.02999969		0.00000000		 0.00000052		-0.00000011		 0.00000005	
Mg		6.24225006		0.00000000		2.02999969		 0.00000052		 0.00000005		-0.00000011	
Mg		2.08075002		0.00000000		6.08999991		-0.00000052		-0.00000005		 0.00000011	
Mg		0.00000000		2.02999969		6.08999991		0.00000000		-0.00000011		 0.00000011	
Mg		0.00000000		6.08999991		2.02999969		0.00000000		 0.00000011		-0.00000011	
Mg		4.16150004		0.00000000		0.00000000		0.00000000		0.00000000		0.00000000	
Mg		2.08075002		2.02999969		4.06000022		-0.00000056		-0.00000002		-0.00000001	
Mg		6.24225006		6.08999991		4.06000022		 0.00000056		 0.00000002		 0.00000001	
Mg		6.24225006		4.06000022		6.08999991		 0.00000056		 0.00000001		 0.00000002	
Mg		2.08075002		4.06000022		2.02999969		-0.00000056		-0.00000001		-0.00000002	
Mg		0.00000000		4.06000022		0.00000000		0.00000000		0.00000000		0.00000000	
Mg		4.16150004		2.02999969		2.02999969		 0.00000008		-0.00000008		-0.00000008	
Mg		4.16150004		6.08999991		6.08999991		-0.00000008		 0.00000008		 0.00000008	
Mg		0.00000000		0.00000000		4.06000022		0.00000000		0.00000000		0.00000000	
O		2.01083682		1.96179188		1.96179188		 0.00021189		-0.00009183		-0.00009183	
O		6.31216326		6.15820773		6.15820773		-0.00021189		 0.00009183		 0.00009183	
O		4.23141324		0.06820782		6.02179209		-0.00021115		 0.00009219		-0.00009239	
O		4.09158684		8.05179179		2.09820834		 0.00021115		-0.00009219		 0.00009239	
O		0.06991320		6.02179209		4.12820804		-0.00021084		-0.00009291		 0.00009279	
O		8.25308687		2.09820834		3.99179240		 0.00021084		 0.00009291		-0.00009279	
O		6.17233686		4.12820804		0.06820782		 0.00021024		 0.00009277		 0.00009267	
O		2.15066322		3.99179240		8.05179179		-0.00021024		-0.00009277		-0.00009267	
O		8.25308687		3.99179240		2.09820834		 0.00021084		-0.00009279		 0.00009291	
O		0.06991320		4.12820804		6.02179209		-0.00021084		 0.00009279		-0.00009291	
O		4.09158684		2.09820834		8.05179179		 0.00021115		 0.00009239		-0.00009219	
O		4.23141324		6.02179209		0.06820782		-0.00021115		-0.00009239		 0.00009219	
O		2.15066322		8.05179179		3.99179240		-0.00021024		-0.00009267		-0.00009277	
O		6.17233686		0.06820782		4.12820804		 0.00021024		 0.00009267		 0.00009277	
O		2.01083682		6.02179209		6.02179209		 0.00021153		-0.00009240		-0.00009240	
O		6.31216326		2.09820834		2.09820834		-0.00021153		 0.00009240		 0.00009240	
O		4.23141324		4.12820804		1.96179188		-0.00021164		 0.00009176		-0.00009164	
O		4.09158684		3.99179240		6.15820773		 0.00021164		-0.00009176		 0.00009164	
O		0.06991320		1.96179188		0.06820782		-0.00021079		-0.00009270		 0.00009278	
O		8.25308687		6.15820773		8.05179179		 0.00021079		 0.00009270		-0.00009278	
O		8.25308687		8.05179179		6.15820773		 0.00021079		-0.00009278		 0.00009270	
O		0.06991320		0.06820782		1.96179188		-0.00021079		 0.00009278		-0.00009270	
O		4.09158684		6.15820773		3.99179240		 0.00021164		 0.00009164		-0.00009176	
O		4.23141324		1.96179188		4.12820804		-0.00021164		-0.00009164		 0.00009176	
O		6.17233686		1.96179188		6.02179209		 0.00021027		-0.00009261		-0.00009285	
O		2.15066322		6.15820773		2.09820834		-0.00021027		 0.00009261		 0.00009285	
O		2.01083682		4.12820804		4.12820804		 0.00021182		 0.00009188		 0.00009188	
O		6.31216326		3.99179240		3.99179240		-0.00021182		-0.00009188		-0.00009188	
O		6.31216326		8.05179179		8.05179179		-0.00021130		-0.00009232		-0.00009232	
O		2.01083682		0.06820782		0.06820782		 0.00021130		 0.00009232		 0.00009232	
O		6.17233686		6.02179209		1.96179188		 0.00021027		-0.00009285		-0.00009261	
O		2.15066322		2.09820834		6.15820773		-0.00021027		 0.00009285		 0.00009261	
