# total energy = -9139.55289382 eV	

CRYSTAL	
PRIMVEC	
		5.33299824		0.00000000		-0.42663879	
		-2.66650180		4.61851135		0.21332207	
		-0.58592012		0.00000000		7.32399888	
PRIMCOORD
   14 1	
Mg		1.50711002		0.00000000		3.19780071		 0.00089582		-0.00000000		 0.00035577	
Mg		-1.15432369		1.53658017		3.41071564		 0.00012330		-0.00012777		-0.00023845	
Mg		1.51217597		3.08193386		3.19739571		 0.00012330		 0.00012777		-0.00023845	
Si		-0.04511580		3.07900900		0.56394805		 0.00054048		 0.00033711		-0.00037076	
Si		2.62138385		1.53950503		0.35062812		 0.00054048		-0.00033711		-0.00037076	
O		-0.17097117		3.07900900		2.13714281		-0.00008459		 0.00049926		 0.00037783	
O		2.49552902		1.53950503		1.92382288		-0.00008459		-0.00049926		 0.00037783	
O		2.09001379		0.00000000		7.05898474		-0.00025866		0.00000000		 0.00079312	
O		-1.91773507		2.31387490		7.37960450		-0.00053145		-0.00010878		-0.00066248	
O		0.74876512		2.30463806		7.16628457		-0.00053145		 0.00010878		-0.00066248	
O		3.18358084		0.00000000		4.05337185		-0.00053400		-0.00000000		 0.00004379	
O		-2.11208805		3.05745583		4.47702585		 0.00008658		-0.00017212		 0.00022782	
O		0.55441214		1.56105766		4.26370592		 0.00008658		 0.00017212		 0.00022782	
O		-0.17753406		0.00000000		2.21917173		-0.00037178		0.00000000		 0.00013941	
