# total energy = -10314.0474442 eV

CRYSTAL
PRIMVEC
		3.41813637		0.00000000		0.00000000
		0.00000000		3.41813637		0.00000000
		0.00000000		0.00000000		10.55969135
PRIMECORD
   14 1
Si		0.00000000		0.00000000		0.00000000		-0.00000003		0.00000000		 0.00000103
Si		1.70906818		1.70906853		5.27984673		0.00000000		0.00000000		-0.00000094
Mg		0.00000000		0.00000000		3.69739232		0.00000000		-0.00000000		 0.00007664
Mg		0.00000000		0.00000000		6.86230114		-0.00000000		-0.00000000		-0.00007752
Mg		1.70906818		1.70906853		8.97685787		-0.00000000		0.00000000		 0.00013843
Mg		1.70906818		1.70906818		1.58283524		-0.00000000		-0.00000000		-0.00013775
O		0.00000000		1.70906853		0.00000000		 0.00000002		-0.00000001		-0.00000032
O		1.70906853		0.00000000		0.00000000		-0.00000002		 0.00000002		-0.00000034
O		1.70906818		0.00000000		5.27984673		 0.00000001		 0.00000001		 0.00000035
O		0.00000000		1.70906818		5.27984673		 0.00000003		 0.00000002		 0.00000032
O		0.00000000		0.00000000		1.77546826		0.00000000		 0.00000009		 0.00008436
O		0.00000000		0.00000000		8.78422450		-0.00000003		-0.00000011		-0.00008472
O		1.70906853		1.70906853		7.05519916		 0.00000006		 0.00000004		-0.00002895
O		1.70906853		1.70906853		3.50449430		-0.00000004		-0.00000007		 0.00002941
