# total energy = -44012.8594744 eV

CRYSTAL
PRIMVEC
		10.09613386		0.00000000		0.07995779
		0.00000000		18.28001592		0.00000000
		-1.33022115		0.00000000		5.18800779
PRIMECORD
   82 1
Si		2.38164940		1.54179904		1.52015526		-0.00004376		 0.00000542		 0.00006809
Si		6.38426626		16.73821491		3.74780737		 0.00004535		-0.00000236		-0.00006772
Si		6.38426626		1.54180003		3.74780737		 0.00004547		 0.00000269		-0.00006770
Si		2.38164940		16.73821589		1.52015526		-0.00004363		-0.00000510		 0.00006811
Si		7.42962993		10.68172944		1.56021565		 0.00030186		 0.00011337		 0.00015749
Si		1.33628475		7.59828451		3.70774699		-0.00029970		-0.00010983		-0.00015703
Si		1.33628475		10.68173042		3.70774699		-0.00029959		 0.00010961		-0.00015699
Si		7.42962993		7.59828549		1.56021565		 0.00030198		-0.00011359		 0.00015753
Si		1.82198021		3.12742073		4.16065426		-0.00037657		-0.00023948		-0.00006393
Si		6.94393545		15.15259322		1.10730936		 0.00037729		 0.00024305		 0.00006380
Si		6.94393545		3.12742171		1.10730936		 0.00037752		-0.00024318		 0.00006383
Si		1.82197923		15.15259420		4.16065426		-0.00037634		 0.00023934		-0.00006390
Si		6.86993326		12.26730400		4.20079614		 0.00029021		 0.00029526		 0.00000917
Si		1.89598142		6.01270897		1.06716748		-0.00028956		-0.00029082		-0.00000934
Si		1.89598142		12.26730596		1.06716748		-0.00028923		 0.00029057		-0.00000931
Si		6.86993326		6.01271093		4.20079515		 0.00029055		-0.00029550		 0.00000920
O		2.64539131		2.18258356		3.02045755		 0.00034756		 0.00026783		-0.00010950
O		6.12052435		16.09743137		2.24750508		-0.00034779		-0.00026942		 0.00010816
O		6.12052435		2.18258356		2.24750508		-0.00034781		 0.00026941		 0.00010820
O		2.64539131		16.09743137		3.02045755		 0.00034754		-0.00026784		-0.00010945
O		7.69339344		11.32227931		3.06076829		 0.00028280		 0.00016743		-0.00022691
O		1.07252320		6.95773563		2.20719532		-0.00028314		-0.00016949		 0.00022530
O		1.07252320		11.32227931		2.20719532		-0.00028316		 0.00016955		 0.00022521
O		7.69339344		6.95773563		3.06076829		 0.00028277		-0.00016737		-0.00022700
O		0.81129863		1.59530125		1.12453700		 0.00012661		-0.00005819		-0.00000763
O		7.95461801		16.68471466		4.14342564		-0.00012764		 0.00005664		 0.00000798
O		7.95461801		1.59530027		4.14342564		-0.00012770		-0.00005671		 0.00000797
O		0.81129863		16.68471368		1.12453700		 0.00012655		 0.00005813		-0.00000764
O		5.85946865		10.73510892		1.16460720		-0.00012059		-0.00001688		-0.00007328
O		2.90644701		7.54490699		4.10335543		 0.00011928		 0.00001486		 0.00007377
O		2.90644701		10.73510794		4.10335543		 0.00011919		-0.00001484		 0.00007375
O		5.85946865		7.54490601		1.16460720		-0.00012069		 0.00001690		-0.00007330
O		2.66361155		4.49512111		4.14113608		 0.00023786		 0.00014351		-0.00002065
O		6.10230509		13.78489382		1.12682656		-0.00023866		-0.00014544		 0.00002057
O		6.10230509		4.49512111		1.12682656		-0.00023879		 0.00014558		 0.00002055
O		2.66361155		13.78489382		4.14113608		 0.00023776		-0.00014337		-0.00002066
O		7.71200444		13.63523707		4.18109632		-0.00011392		-0.00024567		-0.00003326
O		1.05391220		4.64477787		1.08686730		 0.00011284		 0.00024345		 0.00003314
O		1.05391220		13.63523707		1.08686632		 0.00011268		-0.00024323		 0.00003314
O		7.71200444		4.64477787		4.18109632		-0.00011407		 0.00024587		-0.00003328
O		2.93079663		0.00000000		1.51954164		 0.00035109		-0.00000026		-0.00031146
O		5.83511903		0.00000000		3.74842100		-0.00035113		-0.00000026		 0.00031117
O		7.97912472		9.14000698		1.55912094		 0.00030920		 0.00000014		-0.00028998
O		0.78679094		9.14000698		3.70884169		-0.00030923		 0.00000014		 0.00028959
O		0.23900153		3.16863571		3.75423423		 0.00005332		-0.00002051		-0.00029406
O		8.52691413		15.11137922		1.51372840		-0.00005276		 0.00001991		 0.00029417
O		8.52691413		3.16863571		1.51372840		-0.00005287		-0.00001993		 0.00029414
O		0.23900153		15.11137922		3.75423423		 0.00005321		 0.00002049		-0.00029410
O		5.28721966		12.30859262		3.79433782		-0.00028653		-0.00003369		-0.00037172
O		3.47869600		5.97142330		1.47362482		 0.00028754		 0.00003296		 0.00037190
O		3.47869600		12.30859164		1.47362482		 0.00028734		-0.00003293		 0.00037186
O		5.28721966		5.97142232		3.79433880		-0.00028673		 0.00003372		-0.00037176
O		0.12371072		0.00000000		3.70389931		-0.00000351		-0.00000002		 0.00008629
O		8.64217155		0.00000000		1.56405547		 0.00012632		-0.00000002		-0.00005466
O		5.17190431		9.14000796		3.74400682		 0.00037983		-0.00000002		 0.00018910
O		3.59396619		9.14000796		1.52394403		-0.00020939		-0.00000001		-0.00014516
O		3.31426316		2.41707765		0.48081396		 0.00006867		-0.00032705		-0.00028847
O		5.45165250		15.86293729		4.78714868		-0.00006958		 0.00032542		 0.00028984
O		5.45165250		2.41707765		4.78714868		-0.00006958		-0.00032543		 0.00028981
O		3.31426316		15.86293729		0.48081396		 0.00006868		 0.00032704		-0.00028850
O		8.36242532		11.55748226		0.52118557		-0.00007822		-0.00046942		-0.00021694
O		0.40349132		6.72253268		4.74677608		 0.00007707		 0.00046731		 0.00021861
O		0.40349132		11.55748226		4.74677608		 0.00007700		-0.00046725		 0.00021868
O		8.36242532		6.72253268		0.52118557		-0.00007829		 0.00046947		-0.00021687
Ca		-0.66511156		5.09128969		2.59400488		 0.00000020		-0.00048679		 0.00000009
Ca		-0.66511156		13.18872524		2.59400488		 0.00000020		 0.00048677		 0.00000008
Ca		4.38295832		14.23085388		2.63398181		 0.00000003		-0.00041147		 0.00000004
Ca		4.38295832		4.04916106		2.63398181		 0.00000003		 0.00041144		 0.00000005
Mg		0.00000000		0.00000000		0.00000000		-0.00000317		 0.00000005		 0.00000126
Mg		5.04807086		9.14000796		0.03997595		-0.00000439		-0.00000001		 0.00000176
Mg		0.00000000		3.26695611		0.00000000		-0.00000038		-0.00064630		-0.00000019
Mg		0.00000000		15.01305883		0.00000000		-0.00000038		 0.00064631		-0.00000019
Mg		5.04806890		12.40830913		0.03997693		-0.00000060		-0.00069145		-0.00000026
Mg		5.04806890		5.87170580		0.03997693		-0.00000060		 0.00069139		-0.00000026
Mg		-0.66511058		1.61448661		2.59400488		-0.00000198		 0.00039819		-0.00000106
Mg		-0.66511058		16.66552833		2.59400488		-0.00000198		-0.00039813		-0.00000107
Mg		4.38295832		10.75332524		2.63398181		-0.00000275		 0.00049511		-0.00000151
Mg		4.38295832		7.52668969		2.63398181		-0.00000275		-0.00049511		-0.00000151
H		1.05327992		0.00000000		3.95693371		 0.00062627		 0.00000001		 0.00032164
H		7.71266716		0.00000000		1.31103776		-0.00074109		 0.00000001		-0.00035310
H		6.10172387		9.14000796		3.99698919		 0.00022486		-0.00000001		 0.00021795
H		2.66423499		9.14000796		1.27098621		-0.00038427		-0.00000001		-0.00026161
