# total energy = -44012.4078897 eV

CRYSTAL
PRIMVEC
		9.65418642		0.00000000		-0.04745039
		0.00000000		17.88267165		0.00000000
		-1.33664212		0.00000000		5.06291666
PRIMECORD
   82 1
Si		2.37346217		1.49721256		1.50520736		-0.00006038		 0.00002459		 0.00025130
Si		5.94407919		16.38546105		3.51025890		 0.00006019		-0.00002503		-0.00025135
Si		5.94407919		1.49721256		3.51025890		 0.00006012		 0.00002491		-0.00025135
Si		2.37346217		16.38546105		1.50520736		-0.00006044		-0.00002472		 0.00025130
Si		7.20051316		10.43858373		1.48147725		-0.00017410		 0.00000606		 0.00022405
Si		1.11702819		7.44408988		3.53398901		 0.00017395		-0.00000636		-0.00022406
Si		1.11702819		10.43858373		3.53398901		 0.00017386		 0.00000637		-0.00022409
Si		7.20051316		7.44408988		1.48147725		-0.00017418		-0.00000605		 0.00022402
Si		1.73264525		3.06825845		4.06869298		 0.00017214		 0.00021369		 0.00019491
Si		6.58489611		14.81441517		0.94677328		-0.00017205		-0.00021396		-0.00019488
Si		6.58489611		3.06825845		0.94677328		-0.00017223		 0.00021412		-0.00019489
Si		1.73264525		14.81441517		4.06869298		 0.00017196		-0.00021355		 0.00019490
Si		6.55995740		12.00977590		4.04506597		-0.00001631		 0.00008622		 0.00018346
Si		1.75758297		5.87289771		0.97040128		 0.00001650		-0.00008638		-0.00018343
Si		1.75758395		12.00977590		0.97040128		 0.00001623		 0.00008662		-0.00018344
Si		6.55995740		5.87289771		4.04506597		-0.00001657		-0.00008597		 0.00018345
O		2.58842433		2.06823725		3.02674991		 0.00001461		 0.00005704		 0.00022763
O		5.72911703		15.81443637		1.98871636		-0.00001460		-0.00005685		-0.00022746
O		5.72911703		2.06823725		1.98871636		-0.00001459		 0.00005686		-0.00022746
O		2.58842433		15.81443637		3.02674991		 0.00001461		-0.00005703		 0.00022762
O		7.41548710		11.00955933		3.00306889		 0.00001917		 0.00011655		 0.00026274
O		0.90205425		6.87311429		2.01239737		-0.00001918		-0.00011641		-0.00026261
O		0.90205425		11.00955933		2.01239737		-0.00001917		 0.00011638		-0.00026259
O		7.41548710		6.87311429		3.00306889		 0.00001918		-0.00011658		 0.00026277
O		0.81607607		1.51462478		1.10295704		-0.00022526		 0.00019930		-0.00010697
O		7.50146529		16.36804785		3.91250923		 0.00022538		-0.00019916		 0.00010696
O		7.50146529		1.51462478		3.91250923		 0.00022541		 0.00019919		 0.00010696
O		0.81607607		16.36804785		1.10295704		-0.00022523		-0.00019927		-0.00010697
O		5.64311528		10.45627675		1.07915526		-0.00015985		 0.00021682		-0.00009413
O		2.67442608		7.42639686		3.93631100		 0.00015992		-0.00021669		 0.00009410
O		2.67442608		10.45627675		3.93631100		 0.00015998		 0.00021669		 0.00009412
O		5.64311528		7.42639686		1.07915526		-0.00015979		-0.00021681		-0.00009411
O		2.46014431		4.48197481		3.95557294		 0.00022291		-0.00012402		-0.00004149
O		5.85739705		13.40069880		1.05989431		-0.00022288		 0.00012414		 0.00004150
O		5.85739705		4.48197481		1.05989431		-0.00022281		-0.00012428		 0.00004151
O		2.46014431		13.40069880		3.95557294		 0.00022299		 0.00012388		-0.00004150
O		7.28739657		13.42346183		3.93199894		 0.00031590		 0.00005262		-0.00001470
O		1.03014381		4.45921178		1.08346733		-0.00031590		-0.00005256		 0.00001470
O		1.03014381		13.42346183		1.08346733		-0.00031579		 0.00005236		 0.00001470
O		7.28739657		4.45921178		3.93199894		 0.00031600		-0.00005282		-0.00001470
O		3.00575510		0.00000000		1.41044992		 0.00003862		 0.00000009		 0.00014377
O		5.31178626		0.00000000		3.60501733		-0.00003863		 0.00000009		-0.00014372
O		7.83279922		8.94133681		1.38656861		 0.00000920		 0.00000002		 0.00016809
O		0.48474214		8.94133681		3.62889863		-0.00000919		 0.00000001		-0.00016804
O		0.16946653		3.03921386		3.66427485		-0.00012707		-0.00007360		 0.00019331
O		8.14807483		14.84345976		1.35119240		 0.00012692		 0.00007363		-0.00019332
O		8.14807483		3.03921386		1.35119240		 0.00012702		-0.00007364		-0.00019331
O		0.16946653		14.84345976		3.66427485		-0.00012697		 0.00007358		 0.00019332
O		4.99663436		11.98099935		3.64063409		-0.00002373		-0.00003860		 0.00021281
O		3.32090700		5.90167427		1.37483316		 0.00002356		 0.00003863		-0.00021285
O		3.32090700		11.98099935		1.37483316		 0.00002370		-0.00003864		-0.00021281
O		4.99663436		5.90167427		3.64063409		-0.00002359		 0.00003859		 0.00021284
O		0.15215249		0.00000000		3.63214643		-0.00044465		 0.00000002		-0.00024775
O		8.16539181		0.00000000		1.38332082		 0.00043401		 0.00000002		 0.00024495
O		4.97914850		8.94133681		3.60823272		-0.00027519		 0.00000002		-0.00019559
O		3.33839580		8.94133681		1.40723452		 0.00026480		 0.00000002		 0.00019285
O		3.27636175		2.46960100		0.54099829		-0.00018371		-0.00001243		 0.00022175
O		5.04117862		15.41307261		4.47446895		 0.00018382		 0.00001262		-0.00022193
O		5.04117862		2.46960100		4.47446895		 0.00018383		-0.00001263		-0.00022193
O		3.27636175		15.41307261		0.54099829		-0.00018370		 0.00001243		 0.00022175
O		8.10348736		11.41104384		0.51739091		-0.00015491		 0.00002776		 0.00017803
O		0.21405399		6.47162977		4.49807535		 0.00015499		-0.00002763		-0.00017817
O		0.21405399		11.41104384		4.49807535		 0.00015501		 0.00002758		-0.00017821
O		8.10348736		6.47162977		0.51739091		-0.00015488		-0.00002781		 0.00017799
Ca		-0.66832401		4.94483557		2.53145931		-0.00000001		 0.00029358		-0.00000001
Ca		-0.66832401		12.93783706		2.53145931		-0.00000001		-0.00029355		-0.00000001
Ca		4.15877019		13.88628921		2.50773313		0.00000000		 0.00027183		-0.00000001
Ca		4.15877019		3.99638440		2.50773313		-0.00000000		-0.00027179		-0.00000001
Mg		0.00000000		0.00000000		0.00000000		 0.00000029		-0.00000003		-0.00000010
Mg		4.82709419		8.94133681		-0.02372618		 0.00000029		-0.00000000		-0.00000010
Mg		0.00000000		3.12173709		0.00000000		 0.00000004		 0.00089548		 0.00000001
Mg		0.00000000		14.76093652		0.00000000		 0.00000004		-0.00089549		 0.00000001
Mg		4.82709419		12.06449162		-0.02372618		 0.00000004		 0.00037802		 0.00000003
Mg		4.82709419		5.81818200		-0.02372618		 0.00000003		-0.00037800		 0.00000002
Mg		-0.66832401		1.54533451		2.53145931		 0.00000020		 0.00026155		 0.00000012
Mg		-0.66832401		16.33733911		2.53145931		 0.00000020		-0.00026158		 0.00000011
Mg		4.15877019		10.48729279		2.50773313		 0.00000020		 0.00005863		 0.00000011
Mg		4.15877019		7.39538082		2.50773313		 0.00000020		-0.00005868		 0.00000012
H		1.08018222		0.00000000		3.88621859		 0.00059313		-0.00000000		 0.00027522
H		7.23735619		0.00000000		1.12924670		-0.00058324		-0.00000000		-0.00027249
H		5.90723125		8.94133681		3.86247768		 0.00042719		-0.00000000		 0.00023038
H		2.41030814		8.94133681		1.15298760		-0.00041755		-0.00000000		-0.00022772
