# total energy = -24715.5611443 eV

CRYSTAL
PRIMVEC
		9.68100001		0.00000000		0.00000000
		0.00000000		9.61290385		0.00000000
		1.61441324		0.00000000		4.94515161
PRIMECORD
   40 1
Si		2.35750744		3.94128903		0.99397538		 0.00050860		 0.00005067		 0.00023100
Si		8.93790581		5.67161192		3.95117236		-0.00050860		-0.00005067		-0.00023100
Si		3.29020015		8.74773902		1.47859946		-0.00050860		 0.00005067		-0.00023100
Si		8.00521310		0.86516096		3.46654828		 0.00050860		-0.00005067		 0.00023100
Si		8.13069919		3.94128903		1.47859946		-0.00024188		-0.00021736		-0.00014180
Si		3.16471309		5.67161192		3.46654828		 0.00024188		 0.00021736		 0.00014180
Si		7.19800744		8.74773902		0.99397538		 0.00024188		-0.00021736		 0.00014180
Si		4.09740580		0.86516096		3.95117236		-0.00024188		 0.00021736		-0.00014180
O		4.03384133		4.03741846		0.49451516		 0.00036978		 0.00039240		-0.00023954
O		7.26157192		5.57548346		4.45063161		-0.00036978		-0.00039240		 0.00023954
O		1.61386530		8.84386845		1.97805871		-0.00036978		 0.00039240		 0.00023954
O		9.68154698		0.76903153		2.96708806		 0.00036978		-0.00039240		-0.00023954
O		8.60171275		2.40322499		0.78627824		 0.00033125		-0.00008922		 0.00013152
O		2.69369856		7.20967498		4.15886854		-0.00033125		 0.00008922		-0.00013152
O		6.72699291		7.20967498		1.68629467		-0.00033125		-0.00008922		-0.00013152
O		4.56842034		2.40322499		3.25885211		 0.00033125		 0.00008922		 0.00013152
O		2.98584210		4.71032056		4.69788919		 0.00012213		 0.00013320		 0.00030448
O		8.30957115		4.90257942		0.24725661		-0.00012213		-0.00013320		-0.00030448
O		4.27627680		9.51677055		2.71983145		-0.00012213		 0.00013320		-0.00030448
O		7.01913548		0.09612943		2.22531629		 0.00012213		-0.00013320		 0.00030448
O		9.11677680		4.71032056		2.71983145		 0.00026731		-0.00006774		-0.00045218
O		2.17863644		4.90257942		2.22531629		-0.00026731		 0.00006774		 0.00045218
O		7.82634210		9.51677055		4.69788919		-0.00026731		-0.00006774		 0.00045218
O		3.46907115		0.09612943		0.24725661		 0.00026731		 0.00006774		-0.00045218
O		1.88649291		2.40322499		1.68629467		 0.00013821		 0.00015296		 0.00016068
O		9.40892034		7.20967498		3.25885211		-0.00013821		-0.00015296		-0.00016068
O		3.76121275		7.20967498		0.78627824		-0.00013821		 0.00015296		-0.00016068
O		7.53419856		2.40322499		4.15886757		 0.00013821		-0.00015296		 0.00016068
O		6.45436530		4.03741846		1.97805871		-0.00010822		-0.00028680		 0.00014701
O		4.84104795		5.57548346		2.96708806		 0.00010822		 0.00028680		-0.00014701
O		8.87434133		8.84386845		0.49451516		 0.00010822		-0.00028680		-0.00014701
O		2.42107095		0.76903153		4.45063161		-0.00010822		 0.00028680		 0.00014701
Mg		0.40360283		0.87477419		1.23628694		-0.00015302		 0.00021049		 0.00002563
Mg		1.21081042		8.73812579		3.70885984		 0.00015302		-0.00021049		-0.00002563
Mg		5.24410283		5.68122418		1.23628694		 0.00015302		 0.00021049		-0.00002563
Mg		6.05131042		3.93167580		3.70885984		-0.00015302		-0.00021049		 0.00002563
Mg		0.32288265		6.63290133		0.98902935		 0.00001317		-0.00007881		-0.00037764
Mg		1.29152963		2.97999865		3.95611742		-0.00001317		 0.00007881		 0.00037764
Mg		5.32482398		1.82645134		1.48354355		-0.00001317		-0.00007881		 0.00037764
Mg		5.97058927		7.78644863		3.46160322		 0.00001317		 0.00007881		-0.00037764
