# total energy = -24712.82256 eV

CRYSTAL
PRIMVEC
		9.68100001		0.00000000		0.00000000
		0.00000000		7.86509611		0.00000000
		1.61441324		0.00000000		4.94515161
PRIMECORD
   40 1
Si		2.35750744		3.22469076		0.99397538		-0.00025940		-0.00023297		 0.00025957
Si		8.93790581		4.64040922		3.95117236		 0.00025940		 0.00023297		-0.00025957
Si		3.29020015		7.15724075		1.47859946		 0.00025940		-0.00023297		-0.00025957
Si		8.00521310		0.70785923		3.46654828		-0.00025940		 0.00023297		 0.00025957
Si		8.13069919		3.22469076		1.47859946		 0.00019191		 0.00055540		-0.00012378
Si		3.16471309		4.64040922		3.46654828		-0.00019191		-0.00055540		 0.00012378
Si		7.19800744		7.15724075		0.99397538		-0.00019191		 0.00055540		 0.00012378
Si		4.09740580		0.70785923		3.95117236		 0.00019191		-0.00055540		-0.00012378
O		4.03384133		3.30334211		0.49451516		-0.00039311		-0.00000091		 0.00022018
O		7.26157192		4.56175884		4.45063161		 0.00039311		 0.00000091		-0.00022018
O		1.61386530		7.23589210		1.97805871		 0.00039311		-0.00000091		-0.00022018
O		9.68154698		0.62920788		2.96708806		-0.00039311		 0.00000091		 0.00022018
O		8.60171275		1.96627500		0.78627824		-0.00016097		 0.00020739		 0.00061662
O		2.69369856		5.89882499		4.15886854		 0.00016097		-0.00020739		-0.00061662
O		6.72699291		5.89882499		1.68629467		 0.00016097		 0.00020739		-0.00061662
O		4.56842034		1.96627500		3.25885211		-0.00016097		-0.00020739		 0.00061662
O		2.98584210		3.85389864		4.69788919		 0.00018820		 0.00013526		 0.00046014
O		8.30957115		4.01120134		0.24725661		-0.00018820		-0.00013526		-0.00046014
O		4.27627680		7.78644863		2.71983145		-0.00018820		 0.00013526		-0.00046014
O		7.01913548		0.07865135		2.22531629		 0.00018820		-0.00013526		 0.00046014
O		9.11677680		3.85389864		2.71983145		-0.00006950		-0.00029039		 0.00006195
O		2.17863644		4.01120134		2.22531629		 0.00006950		 0.00029039		-0.00006195
O		7.82634210		7.78644863		4.69788919		 0.00006950		-0.00029039		-0.00006195
O		3.46907115		0.07865135		0.24725661		-0.00006950		 0.00029039		 0.00006195
O		1.88649291		1.96627500		1.68629467		-0.00058485		-0.00008869		-0.00054570
O		9.40892034		5.89882499		3.25885211		 0.00058485		 0.00008869		 0.00054570
O		3.76121275		5.89882499		0.78627824		 0.00058485		-0.00008869		 0.00054570
O		7.53419856		1.96627500		4.15886757		-0.00058485		 0.00008869		-0.00054570
O		6.45436530		3.30334211		1.97805871		 0.00041672		 0.00062650		 0.00011989
O		4.84104795		4.56175884		2.96708806		-0.00041672		-0.00062650		-0.00011989
O		8.87434133		7.23589210		0.49451516		-0.00041672		 0.00062650		-0.00011989
O		2.42107095		0.62920788		4.45063161		 0.00041672		-0.00062650		 0.00011989
Mg		0.40360283		0.71572408		1.23628694		-0.00021125		-0.00010051		 0.00012469
Mg		1.21081042		7.14937591		3.70885984		 0.00021125		 0.00010051		-0.00012469
Mg		5.24410283		4.64827407		1.23628694		 0.00021125		-0.00010051		-0.00012469
Mg		6.05131042		3.21682592		3.70885984		-0.00021125		 0.00010051		 0.00012469
Mg		0.32288265		5.42691883		0.98902935		-0.00014824		 0.00043313		-0.00038318
Mg		1.29152963		2.43818115		3.95611742		 0.00014824		-0.00043313		 0.00038318
Mg		5.32482398		1.49436884		1.48354355		 0.00014824		 0.00043313		 0.00038318
Mg		5.97058927		6.37073114		3.46160322		-0.00014824		-0.00043313		-0.00038318
