# total energy = -24716.285027 eV

CRYSTAL
PRIMVEC
		9.68100001		0.00000000		0.00000000
		0.00000000		8.95747111		0.00000000
		1.61441324		0.00000000		4.94515161
PRIMECORD
   40 1
Si		2.35750744		3.67256480		0.99397538		 0.00004424		-0.00038007		-0.00008294
Si		8.93790581		5.28491115		3.95117236		-0.00004424		 0.00038007		 0.00008294
Si		3.29020015		8.15130229		1.47859946		-0.00004424		-0.00038007		 0.00008294
Si		8.00521310		0.80617269		3.46654828		 0.00004424		 0.00038007		-0.00008294
Si		8.13069919		3.67256480		1.47859946		-0.00039402		-0.00046229		 0.00033029
Si		3.16471309		5.28491115		3.46654828		 0.00039402		 0.00046229		-0.00033029
Si		7.19800744		8.15130229		0.99397538		 0.00039402		-0.00046229		-0.00033029
Si		4.09740580		0.80617269		3.95117236		-0.00039402		 0.00046229		 0.00033029
O		4.03384133		3.76214019		0.49451516		 0.00027634		-0.00011044		-0.00006384
O		7.26157192		5.19533576		4.45063161		-0.00027634		 0.00011044		 0.00006384
O		1.61386530		8.24087671		1.97805871		-0.00027634		-0.00011044		 0.00006384
O		9.68154698		0.71659827		2.96708806		 0.00027634		 0.00011044		-0.00006384
O		8.60171275		2.23936923		0.78627824		 0.00003434		-0.00015379		 0.00004587
O		2.69369856		6.71810575		4.15886854		-0.00003434		 0.00015379		-0.00004587
O		6.72699291		6.71810575		1.68629467		-0.00003434		-0.00015379		-0.00004587
O		4.56842034		2.23936923		3.25885211		 0.00003434		 0.00015379		 0.00004587
O		2.98584210		4.38916307		4.69788919		-0.00038780		 0.00051316		 0.00042648
O		8.30957115		4.56831191		0.24725661		 0.00038780		-0.00051316		-0.00042648
O		4.27627680		8.86790056		2.71983145		 0.00038780		 0.00051316		-0.00042648
O		7.01913548		0.08957539		2.22531629		-0.00038780		-0.00051316		 0.00042648
O		9.11677680		4.38916307		2.71983145		 0.00039325		-0.00039529		 0.00000147
O		2.17863644		4.56831191		2.22531629		-0.00039325		 0.00039529		-0.00000147
O		7.82634210		8.86790056		4.69788919		-0.00039325		-0.00039529		-0.00000147
O		3.46907115		0.08957539		0.24725661		 0.00039325		 0.00039529		 0.00000147
O		1.88649291		2.23936923		1.68629467		-0.00065434		-0.00014565		-0.00005109
O		9.40892034		6.71810575		3.25885211		 0.00065434		 0.00014565		 0.00005109
O		3.76121275		6.71810575		0.78627824		 0.00065434		-0.00014565		 0.00005109
O		7.53419856		2.23936923		4.15886757		-0.00065434		 0.00014565		-0.00005109
O		6.45436530		3.76214019		1.97805871		-0.00060596		-0.00005159		 0.00037899
O		4.84104795		5.19533576		2.96708806		 0.00060596		 0.00005159		-0.00037899
O		8.87434133		8.24087671		0.49451516		 0.00060596		-0.00005159		-0.00037899
O		2.42107095		0.71659827		4.45063161		-0.00060596		 0.00005159		 0.00037899
Mg		0.40360283		0.81512955		1.23628694		-0.00008636		-0.00004440		-0.00005721
Mg		1.21081042		8.14234543		3.70885984		 0.00008636		 0.00004440		 0.00005721
Mg		5.24410283		5.29386801		1.23628694		 0.00008636		-0.00004440		 0.00005721
Mg		6.05131042		3.66360697		3.70885984		-0.00008636		 0.00004440		-0.00005721
Mg		0.32288265		6.18065826		0.98902935		 0.00001214		 0.00038653		 0.00014616
Mg		1.29152963		2.77681672		3.95611742		-0.00001214		-0.00038653		-0.00014616
Mg		5.32482398		1.70191980		1.48354355		-0.00001214		 0.00038653		-0.00014616
Mg		5.97058927		7.25555518		3.46160322		 0.00001214		-0.00038653		 0.00014616
