# total energy = -24716.2268324 eV

CRYSTAL
PRIMVEC
		9.68100001		0.00000000		0.00000000
		0.00000000		9.17595192		0.00000000
		1.61441324		0.00000000		4.94515161
PRIMECORD
   40 1
Si		2.35750744		3.76214019		0.99397538		-0.00010346		 0.00062093		 0.00006884
Si		8.93790581		5.41381076		3.95117236		 0.00010346		-0.00062093		-0.00006884
Si		3.29020015		8.35011518		1.47859946		 0.00010346		 0.00062093		-0.00006884
Si		8.00521310		0.82583577		3.46654828		-0.00010346		-0.00062093		 0.00006884
Si		8.13069919		3.76214019		1.47859946		 0.00006170		 0.00000094		-0.00012314
Si		3.16471309		5.41381076		3.46654828		-0.00006170		-0.00000094		 0.00012314
Si		7.19800744		8.35011518		0.99397538		-0.00006170		 0.00000094		 0.00012314
Si		4.09740580		0.82583577		3.95117236		 0.00006170		-0.00000094		-0.00012314
O		4.03384133		3.85389864		0.49451516		-0.00036030		-0.00029721		 0.00058102
O		7.26157192		5.32205231		4.45063161		 0.00036030		 0.00029721		-0.00058102
O		1.61386530		8.44187363		1.97805871		 0.00036030		-0.00029721		-0.00058102
O		9.68154698		0.73407635		2.96708806		-0.00036030		 0.00029721		 0.00058102
O		8.60171275		2.29398846		0.78627824		-0.00048197		-0.00028829		 0.00020808
O		2.69369856		6.88196345		4.15886854		 0.00048197		 0.00028829		-0.00020808
O		6.72699291		6.88196345		1.68629467		 0.00048197		-0.00028829		-0.00020808
O		4.56842034		2.29398846		3.25885211		-0.00048197		 0.00028829		 0.00020808
O		2.98584210		4.49621557		4.69788919		 0.00055045		 0.00070465		 0.00002528
O		8.30957115		4.67973538		0.24725661		-0.00055045		-0.00070465		-0.00002528
O		4.27627680		9.08419056		2.71983145		-0.00055045		 0.00070465		-0.00002528
O		7.01913548		0.09175942		2.22531629		 0.00055045		-0.00070465		 0.00002528
O		9.11677680		4.49621557		2.71983145		-0.00062799		 0.00032755		-0.00008458
O		2.17863644		4.67973538		2.22531629		 0.00062799		-0.00032755		 0.00008458
O		7.82634210		9.08419056		4.69788919		 0.00062799		 0.00032755		 0.00008458
O		3.46907115		0.09175942		0.24725661		-0.00062799		-0.00032755		-0.00008458
O		1.88649291		2.29398846		1.68629467		 0.00035102		 0.00026626		-0.00032251
O		9.40892034		6.88196345		3.25885211		-0.00035102		-0.00026626		 0.00032251
O		3.76121275		6.88196345		0.78627824		-0.00035102		 0.00026626		 0.00032251
O		7.53419856		2.29398846		4.15886757		 0.00035102		-0.00026626		-0.00032251
O		6.45436530		3.85389864		1.97805871		 0.00038649		-0.00027653		-0.00043960
O		4.84104795		5.32205231		2.96708806		-0.00038649		 0.00027653		 0.00043960
O		8.87434133		8.44187363		0.49451516		-0.00038649		-0.00027653		 0.00043960
O		2.42107095		0.73407635		4.45063161		 0.00038649		 0.00027653		-0.00043960
Mg		0.40360283		0.83501142		1.23628694		-0.00025711		 0.00027947		 0.00023065
Mg		1.21081042		8.34093856		3.70885984		 0.00025711		-0.00027947		-0.00023065
Mg		5.24410283		5.42298738		1.23628694		 0.00025711		 0.00027947		-0.00023065
Mg		6.05131042		3.75296357		3.70885984		-0.00025711		-0.00027947		 0.00023065
Mg		0.32288265		6.33140595		0.98902935		-0.00002025		 0.00011904		-0.00015913
Mg		1.29152963		2.84454500		3.95611742		 0.00002025		-0.00011904		 0.00015913
Mg		5.32482398		1.74343096		1.48354355		 0.00002025		 0.00011904		 0.00015913
Mg		5.97058927		7.43251999		3.46160322		-0.00002025		-0.00011904		-0.00015913
