# total energy = -24715.7078242 eV

CRYSTAL
PRIMVEC
		9.68100001		0.00000000		0.00000000
		0.00000000		8.52052885		0.00000000
		1.61441324		0.00000000		4.94515161
PRIMECORD
   40 1
Si		2.35750744		3.49341499		0.99397538		-0.00024376		 0.00003213		 0.00028550
Si		8.93790581		5.02710999		3.95117236		 0.00024376		-0.00003213		-0.00028550
Si		3.29020015		7.75367845		1.47859946		 0.00024376		 0.00003213		-0.00028550
Si		8.00521310		0.76684653		3.46654828		-0.00024376		-0.00003213		 0.00028550
Si		8.13069919		3.49341499		1.47859946		 0.00039061		-0.00015654		-0.00034302
Si		3.16471309		5.02710999		3.46654828		-0.00039061		 0.00015654		 0.00034302
Si		7.19800744		7.75367845		0.99397538		-0.00039061		-0.00015654		 0.00034302
Si		4.09740580		0.76684653		3.95117236		 0.00039061		 0.00015654		-0.00034302
O		4.03384133		3.57862134		0.49451516		-0.00029901		 0.00035973		-0.00012474
O		7.26157192		4.94190461		4.45063161		 0.00029901		-0.00035973		 0.00012474
O		1.61386530		7.83888287		1.97805871		 0.00029901		 0.00035973		 0.00012474
O		9.68154698		0.68164211		2.96708806		-0.00029901		-0.00035973		-0.00012474
O		8.60171275		2.13013076		0.78627824		-0.00047355		-0.00084807		 0.00009703
O		2.69369856		6.39039422		4.15886854		 0.00047355		 0.00084807		-0.00009703
O		6.72699291		6.39039422		1.68629467		 0.00047355		-0.00084807		-0.00009703
O		4.56842034		2.13013076		3.25885211		-0.00047355		 0.00084807		 0.00009703
O		2.98584210		4.17505711		4.69788919		 0.00009980		 0.00025874		-0.00061495
O		8.30957115		4.34546788		0.24725661		-0.00009980		-0.00025874		 0.00061495
O		4.27627680		8.43531960		2.71983145		-0.00009980		 0.00025874		 0.00061495
O		7.01913548		0.08520539		2.22531629		 0.00009980		-0.00025874		-0.00061495
O		9.11677680		4.17505711		2.71983145		-0.00011409		-0.00000873		 0.00069011
O		2.17863644		4.34546788		2.22531629		 0.00011409		 0.00000873		-0.00069011
O		7.82634210		8.43531960		4.69788919		 0.00011409		-0.00000873		-0.00069011
O		3.46907115		0.08520539		0.24725661		-0.00011409		 0.00000873		 0.00069011
O		1.88649291		2.13013076		1.68629467		-0.00026901		-0.00023748		-0.00000934
O		9.40892034		6.39039422		3.25885211		 0.00026901		 0.00023748		 0.00000934
O		3.76121275		6.39039422		0.78627824		 0.00026901		-0.00023748		 0.00000934
O		7.53419856		2.13013076		4.15886757		-0.00026901		 0.00023748		-0.00000934
O		6.45436530		3.57862134		1.97805871		 0.00060782		 0.00075332		 0.00001968
O		4.84104795		4.94190461		2.96708806		-0.00060782		-0.00075332		-0.00001968
O		8.87434133		7.83888287		0.49451516		-0.00060782		 0.00075332		-0.00001968
O		2.42107095		0.68164211		4.45063161		 0.00060782		-0.00075332		 0.00001968
Mg		0.40360283		0.77536775		1.23628694		-0.00012381		-0.00075515		 0.00005304
Mg		1.21081042		7.74515723		3.70885984		 0.00012381		 0.00075515		-0.00005304
Mg		5.24410283		5.03563121		1.23628694		 0.00012381		-0.00075515		-0.00005304
Mg		6.05131042		3.48489474		3.70885984		-0.00012381		 0.00075515		 0.00005304
Mg		0.32288265		5.87916191		0.98902935		 0.00001692		 0.00008694		-0.00000965
Mg		1.29152963		2.64136307		3.95611742		-0.00001692		-0.00008694		 0.00000965
Mg		5.32482398		1.61890039		1.48354355		-0.00001692		 0.00008694		 0.00000965
Mg		5.97058927		6.90162556		3.46160322		 0.00001692		-0.00008694		-0.00000965
