# total energy = -18389.9224974 eV

CRYSTAL
PRIMVEC
		12.22077963		0.00000000		0.00000000
		0.00000000		6.38940243		0.00000000
		0.00000000		0.00000000		4.82810007
PRIMECORD
   28 1
Mg		0.00000000		0.00000000		0.00000000		0.00000000		0.00000000		-0.00000000
Mg		6.11038981		0.00000000		2.41405003		0.00000000		0.00000000		-0.00000000
Mg		0.00000000		3.19469999		0.00000000		0.00000000		-0.00000000		-0.00000000
Mg		6.11038981		3.19469999		2.41405003		0.00000000		0.00000000		-0.00000000
Ca		3.38320063		1.59735000		4.71922637		-0.00043927		0.00000000		 0.00056627
Ca		8.83758022		4.79204999		0.10887370		 0.00043927		0.00000000		-0.00056627
Ca		2.72718918		4.79204999		2.30517633		 0.00043927		-0.00000000		 0.00056627
Ca		9.49359045		1.59735000		2.52292374		-0.00043927		0.00000000		-0.00056627
Si		0.99672679		1.59735000		1.98425255		-0.00055845		0.00000000		-0.00013148
Si		11.22405284		4.79204999		2.84384752		 0.00055845		0.00000000		 0.00013148
Si		5.11366303		4.79204999		4.39830258		 0.00055845		-0.00000000		-0.00013148
Si		7.10711660		1.59735000		0.42979749		-0.00055845		0.00000000		 0.00013148
O		0.94918795		1.59735000		3.60031378		 0.00019302		0.00000000		-0.00055558
O		11.27159290		4.79204999		1.22778629		-0.00019302		0.00000000		 0.00055558
O		5.16120186		4.79204999		1.18626375		-0.00019302		0.00000000		-0.00055558
O		7.05957777		1.59735000		3.64183632		 0.00019302		0.00000000		 0.00055558
O		5.48725226		1.59735000		1.18771313		-0.00049262		0.00000000		 0.00094204
O		6.73352737		4.79204999		3.64038816		 0.00049262		0.00000000		-0.00094204
O		0.62313755		4.79204999		3.60176317		 0.00049262		0.00000000		 0.00094204
O		11.59764207		1.59735000		1.22633690		-0.00049262		0.00000000		-0.00094204
O		1.80293162		0.29199598		1.31952035		-0.00047492		 0.00025094		 0.00068197
O		10.41784801		6.09740401		3.50857972		 0.00047492		-0.00025094		-0.00068197
O		4.30745820		6.09740401		3.73357038		 0.00047492		-0.00025094		 0.00068197
O		7.91332143		0.29199598		1.09452969		-0.00047492		 0.00025094		-0.00068197
O		10.41784801		3.48669597		3.50857972		 0.00047492		 0.00025094		-0.00068197
O		1.80293162		2.90270402		1.31952035		-0.00047492		-0.00025094		 0.00068197
O		7.91332143		2.90270402		1.09452969		-0.00047492		-0.00025094		-0.00068197
O		4.30745820		3.48669597		3.73357038		 0.00047492		 0.00025094		 0.00068197
