# total energy = -10831.8883775 eV	

CRYSTAL	
PRIMVEC	
		3.03200062		0.00000000		0.36383934	
		-1.51599878		2.62579047		-0.18192120	
		1.79520032		0.00000000		14.96000065	
PRIMCOORD
   13 1	
Mg		1.81519996		0.87526318		2.67525301		 0.00001866		 0.00017086		 0.00040574	
Mg		1.49600006		1.75052606		12.46666639		-0.00001866		-0.00017086		-0.00040574	
Mg		0.00000000		0.00000000		0.00000000		0.00000000		0.00000000		0.00000000	
Mg		0.59839990		1.75052606		4.98666729		 0.00015749		 0.00014578		-0.00052155	
Mg		2.71280012		0.87526318		10.15525333		-0.00015749		-0.00014578		 0.00052155	
O		3.16160005		0.87526318		13.89525457		 0.00038543		 0.00065890		-0.00033695	
O		0.14959998		1.75052606		1.24666606		-0.00038543		-0.00065890		 0.00033695	
O		2.24664602		0.87526318		6.27064013		-0.00061301		 0.00082042		 0.00013643	
O		1.06455400		1.75052606		8.87128050		 0.00061301		-0.00082042		-0.00013643	
O		1.34675921		0.00000000		11.22299240		-0.00027580		 0.00085144		 0.00072826	
O		0.44844111		0.00000000		3.73700825		 0.00027580		-0.00085144		-0.00072826	
H		2.36548921		0.87526318		7.26099222		 0.00035096		 0.00023384		 0.00048406	
H		0.94571112		1.75052606		7.88092932		-0.00035096		-0.00023384		-0.00048406	
