# total energy = -10831.877298 eV	

CRYSTAL	
PRIMVEC	
		3.03199896		0.00000000		0.24255931	
		-1.51600100		2.62578778		-0.12128118	
		1.19680031		0.00000000		14.95999782	
PRIMCOORD
   13 1	
Mg		1.71546691		0.87526300		2.61461293		 0.00056913		-0.00063302		 0.00000610	
Mg		0.99733288		1.75052600		12.46666515		-0.00056913		 0.00063302		-0.00000610	
Mg		0.00000000		0.00000000		0.00000000		0.00000000		0.00000000		0.00000000	
Mg		0.39893303		1.75052600		4.98666655		-0.00008639		 0.00027886		 0.00020875	
Mg		2.31386676		0.87526300		10.09461244		 0.00008639		-0.00027886		-0.00020875	
O		2.61306684		0.87526300		13.83461327		 0.00012825		-0.00048886		 0.00042152	
O		0.09973295		1.75052600		1.24666603		-0.00012825		 0.00048886		-0.00042152	
O		2.00309793		0.87526300		6.20999949		 0.00017629		 0.00034610		 0.00020420	
O		0.70970186		1.75052600		8.87127950		-0.00017629		-0.00034610		-0.00020420	
O		0.89783901		0.00000000		11.22299123		-0.00005495		-0.00081634		-0.00040459	
O		0.29896100		0.00000000		3.73700780		 0.00005495		 0.00081634		 0.00040459	
H		2.08232596		0.87526300		7.20035140		-0.00030446		-0.00070113		 0.00029800	
H		0.63047383		1.75052600		7.88092850		 0.00030446		 0.00070113		-0.00029800	
