# total energy = -12348.3731026 eV	

CRYSTAL	
PRIMVEC	
		4.44490009		0.00000000		0.00000000	
		0.00000000		4.66479819		0.00000000	
		0.00000000		0.00000000		6.45439942	
PRIMCOORD
   20 1	
O		0.47515982		2.21811227		1.61360008		 0.00026396		 0.00029775		-0.00000000	
O		3.96974027		2.44668814		4.84080023		-0.00026396		-0.00029775		-0.00000000	
O		2.69760987		0.11428816		4.84080023		 0.00026396		-0.00029775		0.00000000	
O		1.74729023		4.55051314		1.61360008		-0.00026396		 0.00029775		0.00000000	
O		0.83697513		0.90450517		3.62801813		 0.00026103		 0.00007444		-0.00017761	
O		3.60792496		3.76029525		2.82638218		-0.00026103		-0.00007444		 0.00017761	
O		3.05942518		1.42789482		2.82638218		 0.00026103		-0.00007444		 0.00017761	
O		1.38547491		3.23690515		3.62801813		-0.00026103		 0.00007444		-0.00017761	
O		3.60792496		3.76029525		0.40081798		-0.00026103		-0.00007444		-0.00017761	
O		0.83697513		0.90450517		6.05358233		 0.00026103		 0.00007444		 0.00017761	
O		1.38547491		3.23690515		6.05358233		-0.00026103		 0.00007444		 0.00017761	
O		3.05942518		1.42789482		0.40081798		 0.00026103		-0.00007444		-0.00017761	
Mg		2.30334723		2.71351416		1.61360008		-0.00012704		-0.00025731		0.00000000	
Mg		2.14155286		1.95128625		4.84080023		 0.00012704		 0.00025731		0.00000000	
Mg		0.08089718		4.28368623		4.84080023		-0.00012704		 0.00025731		-0.00000000	
Mg		4.36400291		0.38111418		1.61360008		 0.00012704		-0.00025731		-0.00000000	
Si		2.22245005		0.00000000		3.22720015		0.00000000		0.00000000		-0.00000000	
Si		0.00000000		2.33239998		3.22720015		0.00000000		0.00000000		0.00000000	
Si		2.22245005		0.00000000		0.00000000		0.00000000		0.00000000		-0.00000000	
Si		0.00000000		2.33239998		0.00000000		0.00000000		0.00000000		0.00000000	
