# total energy = -41266.3401804 eV

CRYSTAL
PRIMVEC
		5.69829968		0.00000000		0.00000000
		0.00000000		11.43799751		1.37256084
		0.00000000		0.99079186		8.25659691
PRIMECORD
   56 1
Mg		0.00000000		0.00000000		0.00000000		0.00000000		0.00000000		0.00000000
Mg		0.00000000		5.71899990		0.68627985		0.00000000		0.00000000		0.00000000
Mg		2.84914984		6.21439583		4.81458002		0.00000000		0.00000000		0.00000000
Mg		2.84914984		0.49539593		4.12829960		0.00000000		0.00000000		0.00000000
Mg		0.00000000		3.82066663		8.35286741		0.00000000		 0.00044378		-0.00051720
Mg		0.00000000		8.60812331		1.27629206		0.00000000		-0.00044378		 0.00051720
Mg		2.84914984		9.04427060		4.91084766		0.00000000		 0.00044377		-0.00051719
Mg		2.84914984		3.38452105		4.71831294		0.00000000		-0.00044377		 0.00051719
Mg		1.42457492		1.70718665		2.23928875		-0.00013374		-0.00033858		 0.00037783
Mg		4.27372476		10.72160443		7.38987186		 0.00013374		 0.00033858		-0.00037783
Mg		4.27372476		4.50720860		2.57529070		-0.00013375		 0.00033857		-0.00037780
Mg		1.42457492		7.92158248		7.05386877		 0.00013375		-0.00033857		 0.00037780
Mg		4.27372476		7.92158248		7.05386877		-0.00013375		-0.00033857		 0.00037780
Mg		1.42457492		4.50720860		2.57529070		 0.00013375		 0.00033857		-0.00037780
Mg		1.42457492		10.72160443		7.38987186		-0.00013374		 0.00033858		-0.00037783
Mg		4.27372476		1.70718665		2.23928875		 0.00013374		-0.00033858		 0.00037783
Si		0.00000000		1.98139282		5.25710370		-0.00000000		-0.00039920		-0.00005732
Si		0.00000000		10.44739826		4.37205690		-0.00000000		 0.00039920		 0.00005732
Si		0.00000000		4.95984791		5.61451758		0.00000000		-0.00010701		 0.00055392
Si		0.00000000		7.46894260		4.01464188		0.00000000		 0.00010701		-0.00055392
Si		2.84914984		7.20499565		1.81508396		0.00000000		-0.00039934		-0.00005715
Si		2.84914984		5.22379486		7.81407665		0.00000000		 0.00039934		 0.00005715
Si		2.84914984		10.18345131		2.17249784		0.00000000		-0.00010698		 0.00055400
Si		2.84914984		2.24533977		7.45666163		0.00000000		 0.00010698		-0.00055400
O		0.00000000		3.07410504		2.13151966		0.00000000		-0.00044921		-0.00009850
O		0.00000000		9.35468547		7.49764038		0.00000000		 0.00044921		 0.00009850
O		2.84914984		9.28850029		6.94609967		0.00000000		-0.00044920		-0.00009847
O		2.84914984		3.14028965		2.68306093		0.00000000		 0.00044920		 0.00009847
O		0.00000000		3.56930267		6.25816845		0.00000000		-0.00057536		 0.00011206
O		0.00000000		8.85948728		3.37099158		0.00000000		 0.00057536		-0.00011206
O		2.84914984		8.79290663		2.81614871		-0.00000000		-0.00057536		 0.00011203
O		2.84914984		3.63588502		6.81301189		-0.00000000		 0.00057536		-0.00011203
O		0.00000000		11.57706338		3.47087309		0.00000000		 0.00009950		 0.00003581
O		0.00000000		0.85172713		6.15828752		0.00000000		-0.00009950		-0.00003581
O		0.00000000		6.08682343		2.81204365		0.00000000		-0.00026123		-0.00053292
O		0.00000000		6.34196651		6.81711581		0.00000000		 0.00026123		 0.00053292
O		2.84914984		6.35346055		6.91289283		0.00000000		 0.00009937		 0.00003593
O		2.84914984		6.07533053		2.71626663		0.00000000		-0.00009937		-0.00003593
O		2.84914984		0.86322117		6.25406340		0.00000000		-0.00026120		-0.00053286
O		2.84914984		11.56557048		3.37509606		0.00000000		 0.00026120		 0.00053286
O		1.49010480		2.38451561		8.36281436		 0.00007105		-0.00019705		-0.00051419
O		4.20819375		10.04427547		1.26634567		-0.00007105		 0.00019705		 0.00051419
O		4.20819375		5.30120569		8.71281646		-0.00041912		-0.00032616		 0.00046037
O		1.49010480		7.12758539		0.91634300		 0.00041912		 0.00032616		-0.00046037
O		4.20819375		7.12758539		0.91634300		-0.00041912		 0.00032616		-0.00046037
O		1.49010480		5.30120569		8.71281646		 0.00041912		-0.00032616		 0.00046037
O		1.49010480		10.04427547		1.26634567		 0.00007105		 0.00019705		 0.00051419
O		4.20819375		2.38451561		8.36281436		-0.00007105		-0.00019705		-0.00051419
O		4.33925464		7.60811958		4.92079347		 0.00007108		-0.00019705		-0.00051420
O		1.35904504		4.82067150		4.70836599		-0.00007108		 0.00019705		 0.00051420
O		1.35904504		10.52480966		5.27079672		-0.00041918		-0.00032616		 0.00046034
O		4.33925464		1.90398199		4.35836275		 0.00041918		 0.00032616		-0.00046034
O		1.35904504		1.90398199		4.35836275		-0.00041918		 0.00032616		-0.00046034
O		4.33925464		10.52480966		5.27079672		 0.00041918		-0.00032616		 0.00046034
O		4.33925464		4.82067150		4.70836599		 0.00007108		 0.00019705		 0.00051420
O		1.35904504		7.60811958		4.92079347		-0.00007108		-0.00019705		-0.00051420
