# total energy = -41274.1783471 eV

CRYSTAL
PRIMVEC
		5.69780014		0.00000000		0.00000000
		0.00000000		11.46200244		0.00000000
		0.00000000		0.00000000		8.87638062
PRIMECORD
   56 1
Mg		0.00000000		0.00000000		0.00000000		0.00000000		0.00000000		0.00000000
Mg		0.00000000		5.73100008		0.00000000		0.00000000		0.00000000		0.00000000
Mg		2.84890007		5.73100008		4.43819088		0.00000000		0.00000000		0.00000000
Mg		2.84890007		0.00000000		4.43819088		0.00000000		0.00000000		0.00000000
Mg		0.00000000		2.86550004		8.60831622		0.00000000		 0.00000001		-0.00064214
Mg		0.00000000		8.59650012		0.26806725		0.00000000		-0.00000001		 0.00064214
Mg		2.84890007		8.59650012		4.17012534		0.00000000		-0.00000001		-0.00064216
Mg		2.84890007		2.86550004		4.70625813		0.00000000		 0.00000001		 0.00064216
Mg		1.42445004		1.45452815		2.21909601		 0.00000001		 0.00056091		-0.00000000
Mg		4.27335011		10.00747201		6.65728689		-0.00000001		-0.00056091		0.00000000
Mg		4.27335011		4.27647193		2.21909601		-0.00000000		-0.00056092		-0.00000001
Mg		1.42445004		7.18552823		6.65728689		0.00000000		 0.00056092		 0.00000001
Mg		4.27335011		7.18552823		6.65728689		-0.00000000		 0.00056092		 0.00000001
Mg		1.42445004		4.27647193		2.21909601		0.00000000		-0.00056092		-0.00000001
Mg		1.42445004		10.00747201		6.65728689		 0.00000001		-0.00056091		0.00000000
Mg		4.27335011		1.45452815		2.21909601		-0.00000001		 0.00056091		-0.00000000
Si		0.00000000		1.37429401		5.47229033		0.00000000		 0.00022837		 0.00055812
Si		0.00000000		10.08770615		3.40409315		0.00000000		-0.00022837		-0.00055812
Si		0.00000000		4.35670607		5.47229033		0.00000000		-0.00022836		 0.00055811
Si		0.00000000		7.10529409		3.40409315		0.00000000		 0.00022836		-0.00055811
Si		2.84890007		7.10529409		1.03409888		-0.00000000		 0.00022836		 0.00055816
Si		2.84890007		4.35670607		7.84228403		0.00000000		-0.00022836		-0.00055816
Si		2.84890007		10.08770615		1.03409888		-0.00000000		-0.00022837		 0.00055817
Si		2.84890007		1.37429401		7.84228403		0.00000000		 0.00022837		-0.00055817
O		0.00000000		2.86550004		1.93682699		0.00000000		0.00000000		 0.00016346
O		0.00000000		8.59650012		6.93955591		0.00000000		-0.00000000		-0.00016346
O		2.84890007		8.59650012		6.37501787		0.00000000		-0.00000001		 0.00016347
O		2.84890007		2.86550004		2.50136503		0.00000000		 0.00000001		-0.00016347
O		0.00000000		2.86550004		6.35282722		0.00000000		 0.00000002		-0.00037818
O		0.00000000		8.59650012		2.52355625		-0.00000000		-0.00000002		 0.00037818
O		2.84890007		8.59650012		1.91463520		0.00000000		-0.00000002		-0.00037820
O		2.84890007		2.86550004		6.96174713		0.00000000		 0.00000002		 0.00037820
O		0.00000000		11.34508700		2.27679194		-0.00000000		 0.00042999		 0.00069416
O		0.00000000		0.11691316		6.59959040		0.00000000		-0.00042999		-0.00069416
O		0.00000000		5.84791324		2.27679194		0.00000000		-0.00043000		 0.00069415
O		0.00000000		5.61408692		6.59959040		0.00000000		 0.00043000		-0.00069415
O		2.84890007		5.61408692		6.71498339		0.00000000		 0.00043000		 0.00069421
O		2.84890007		5.84791324		2.16139895		0.00000000		-0.00043000		-0.00069421
O		2.84890007		0.11691316		6.71498339		0.00000000		-0.00042997		 0.00069420
O		2.84890007		11.34508700		2.16139895		-0.00000000		 0.00042997		-0.00069420
O		1.48199782		1.40524104		8.81513497		 0.00059260		-0.00005518		-0.00018663
O		4.21580232		10.05675798		0.06124679		-0.00059260		 0.00005518		 0.00018663
O		4.21580232		4.32575904		8.81513497		-0.00059257		 0.00005518		-0.00018664
O		1.48199782		7.13624112		0.06124679		 0.00059257		-0.00005518		 0.00018664
O		4.21580232		7.13624112		0.06124679		-0.00059257		-0.00005518		 0.00018664
O		1.48199782		4.32575904		8.81513497		 0.00059257		 0.00005518		-0.00018664
O		1.48199782		10.05675798		0.06124679		 0.00059260		 0.00005518		 0.00018663
O		4.21580232		1.40524104		8.81513497		-0.00059260		-0.00005518		-0.00018663
O		4.33089789		7.13624112		4.37694409		 0.00059258		-0.00005516		-0.00018667
O		1.36690225		4.32575904		4.49943825		-0.00059258		 0.00005516		 0.00018667
O		1.36690225		10.05675798		4.37694409		-0.00059261		 0.00005517		-0.00018663
O		4.33089789		1.40524104		4.49943825		 0.00059261		-0.00005517		 0.00018663
O		1.36690225		1.40524104		4.49943825		-0.00059261		-0.00005517		 0.00018663
O		4.33089789		10.05675798		4.37694409		 0.00059261		 0.00005517		-0.00018663
O		4.33089789		4.32575904		4.49943825		 0.00059258		 0.00005516		 0.00018667
O		1.36690225		7.13624112		4.37694409		-0.00059258		-0.00005516		-0.00018667
