# total energy = -12280.9475323 eV	

CRYSTAL	
PRIMVEC	
		3.16385049		0.00000000		0.00000000	
		-1.58192524		2.73997296		0.00000000	
		0.00000000		0.00000000		22.04873465	
PRIMCOORD
   22 1	
O		0.00000000		1.82664895		14.84305082		 0.00000005		 0.00000001		-0.00049718	
O		1.58192461		0.91332463		7.20568414		-0.00000002		-0.00000000		 0.00049697	
O		1.58192461		0.91332463		16.94370587		 0.00000004		 0.00000006		-0.00042094	
O		0.00000000		1.82664927		5.10502909		 0.00000001		-0.00000010		 0.00042095	
O		0.00000000		1.82664895		9.97266521		-0.00000001		 0.00000005		 0.00005620	
O		1.58192461		0.91332463		12.07607038		-0.00000001		-0.00000004		-0.00005629	
O		0.00000000		1.82664927		19.78812731		 0.00000001		 0.00000002		-0.00057220	
O		1.58192461		0.91332463		2.26060765		-0.00000001		-0.00000000		 0.00057218	
O		0.00000000		0.00000000		0.00000000		-0.00000002		-0.00000001		-0.00000003	
H		0.00000000		1.82664927		13.87840666		-0.00000000		-0.00000001		 0.00036750	
H		1.58192461		0.91332463		8.17032830		-0.00000000		 0.00000001		-0.00036738	
H		0.00000000		1.82664927		9.00828380		-0.00000000		-0.00000000		-0.00011143	
H		1.58192461		0.91332463		13.04045179		-0.00000000		-0.00000000		 0.00011143	
H		0.00000000		1.82664927		18.82363119		-0.00000000		0.00000000		-0.00030660	
H		1.58192461		0.91332463		3.22510378		-0.00000000		-0.00000000		 0.00030660	
H		1.58192461		0.91332463		17.90703595		-0.00000001		-0.00000000		-0.00051075	
H		0.00000000		1.82664927		4.14169902		-0.00000000		 0.00000001		 0.00051088	
Mg		0.00000000		0.00000000		15.89500406		-0.00000000		-0.00000001		-0.00022111	
Mg		0.00000000		0.00000000		6.15373059		-0.00000000		 0.00000002		 0.00022111	
Mg		1.58192461		0.91332463		20.82712794		0.00000000		 0.00000001		-0.00024244	
Mg		0.00000000		1.82664927		1.22160703		-0.00000000		-0.00000000		 0.00024251	
Mg		0.00000000		0.00000000		11.02436764		-0.00000000		-0.00000000		 0.00000003	
