# total energy = -9074.79697514 eV

CRYSTAL
PRIMVEC
		5.11309853		0.00000000		0.40904686
		0.00000000		5.18979898		0.00000000
		0.58258593		0.00000000		7.32998938
PRIMECORD
   28 1
Mg		4.02707182		2.66755692		2.15029487		-0.00003984		-0.00023622		-0.00079572
Mg		1.66861418		0.07265692		5.58874495		 0.00003984		-0.00023622		 0.00079572
Si		1.42392111		0.06746696		1.93476008		 0.00033210		 0.00019739		-0.00007892
Si		4.27176385		2.66236696		5.80427974		-0.00033210		 0.00019739		 0.00007892
O		2.13686191		5.07043393		3.68154020		 0.00013759		-0.00022783		-0.00055260
O		3.55882409		2.47553393		4.05749912		-0.00013759		-0.00022783		 0.00055260
O		4.98237383		2.85438995		7.52174000		 0.00012914		 0.00002490		-0.00038425
O		0.71331216		0.25948995		0.21729983		-0.00012914		 0.00002490		 0.00038425
O		5.04131413		4.16740907		5.45069081		-0.00050742		-0.00039578		 0.00035591
O		0.65437187		1.57250907		2.28834902		 0.00050742		-0.00039578		-0.00035591
O		2.76812874		3.43045791		6.06272482		-0.00047432		 0.00035472		-0.00010747
O		2.92755674		0.83555790		1.67631500		 0.00047432		 0.00035472		 0.00010747
O		5.03364613		4.35424210		2.73337476		 0.00049230		 0.00051795		-0.00031566
O		0.66203986		1.75934210		5.00566506		-0.00049230		 0.00051795		 0.00031566
O		2.10408789		3.65880910		1.47933595		-0.00033013		-0.00009340		-0.00005800
O		3.59159811		1.06390910		6.25970285		 0.00033013		-0.00009340		 0.00005800
H		2.62157102		4.16740907		3.77130122		-0.00004378		-0.00011413		 0.00013203
H		3.07411498		1.57250907		3.96773912		 0.00004378		-0.00011413		-0.00013203
H		5.49776210		3.62766984		7.61395494		 0.00021688		 0.00007298		 0.00049660
H		0.19792287		1.03276983		0.12508488		-0.00021688		 0.00007298		-0.00049660
H		2.01553023		2.83363113		5.79858196		 0.00032306		 0.00013370		 0.00034147
H		3.68015576		0.23873112		1.94045786		-0.00032306		 0.00013370		-0.00034147
H		4.38852315		4.93549900		5.67523596		 0.00013936		-0.00002696		-0.00013616
H		1.30716284		2.34060002		2.06380387		-0.00013936		-0.00002696		 0.00013616
H		5.03999894		4.42170906		3.64430614		-0.00039527		-0.00030535		 0.00017854
H		0.65568706		1.82681008		4.09473420		 0.00039527		-0.00030535		-0.00017854
H		2.13747385		3.59653108		0.55701723		 0.00047820		 0.00009805		-0.00015383
H		3.55821215		1.00163108		7.18202311		-0.00047820		 0.00009805		 0.00015383
