# total energy = -9072.29757983 eV

CRYSTAL
PRIMVEC
		5.11310166		0.00000000		-0.81809854
		0.00000000		5.18980018		0.00000000
		-1.17668431		0.00000000		7.33091192
PRIMECORD
   28 1
Mg		3.58549470		2.66755707		1.21912378		 0.00021429		-0.00085191		-0.00010909
Mg		0.35091902		0.07265699		5.29369270		-0.00021429		-0.00085191		 0.00010909
Si		0.98410382		0.06746694		1.62820412		-0.00033366		-0.00033900		 0.00013605
Si		2.95231094		2.66236703		4.88461288		 0.00033366		-0.00033900		-0.00013605
O		1.28889292		5.07043384		3.23653094		-0.00016066		 0.00012349		-0.00017222
O		2.64752080		2.47553375		3.27628606		 0.00016066		 0.00012349		 0.00017222
O		3.26180696		2.85438984		6.46361592		 0.00008127		 0.00032307		-0.00021524
O		0.67460779		0.25948975		0.04920107		-0.00008127		 0.00032307		 0.00021524
O		3.82213800		4.16740872		4.33830992		-0.00025651		-0.00026585		-0.00050407
O		0.11427624		1.57250915		2.17450708		 0.00025651		-0.00026585		 0.00050407
O		1.35719302		3.43045775		5.51124889		-0.00009927		-0.00040497		 0.00000576
O		2.57922070		0.83555818		1.00156811		 0.00009927		-0.00040497		-0.00000576
O		4.47067856		4.35424200		1.57033692		-0.00033715		 0.00037096		 0.00021456
O		-0.53426483		1.75934191		4.94247956		 0.00033715		 0.00037096		-0.00021456
O		1.78741879		3.65880879		0.99968897		-0.00039238		 0.00008549		-0.00047849
O		2.14899493		1.06390870		5.51312752		 0.00039238		 0.00008549		 0.00047849
H		1.76128682		4.16740872		3.21094681		 0.00015234		 0.00006024		-0.00007517
H		2.17512690		1.57250915		3.30187070		-0.00015234		 0.00006024		 0.00007517
H		3.76487975		3.62767008		6.43312293		 0.00016613		 0.00020629		 0.00019405
H		0.17153397		1.03276999		0.07969407		-0.00016613		 0.00020629		-0.00019405
H		0.65385383		2.83363070		5.42378865		-0.00048252		 0.00016224		 0.00033186
H		3.28255989		0.23873113		1.08902783		 0.00048252		 0.00016224		-0.00033186
H		3.10249494		4.93549892		4.72487263		 0.00056667		 0.00023825		-0.00016695
H		0.83391878		2.34059986		1.78794385		-0.00056667		 0.00023825		 0.00016695
H		4.25712300		4.42170894		2.49733576		 0.00016540		-0.00006270		 0.00013484
H		-0.32070876		1.82680989		4.01547968		-0.00016540		-0.00006270		-0.00013484
H		2.04423300		3.59653086		0.05148308		 0.00041195		 0.00035438		 0.00035772
H		1.89218072		1.00163077		6.46133392		-0.00041195		 0.00035438		-0.00035772
