# total energy = -9075.51294592 eV

CRYSTAL
PRIMVEC
		5.11309987		0.00000000		-0.20452379
		0.00000000		5.18980141		0.00000000
		-0.29704768		0.00000000		7.33044929
PRIMECORD
   28 1
Mg		3.80628250		2.66755659		1.68470997		 0.00013991		 0.00029116		 0.00092450
Mg		1.00976713		0.07265691		5.44121860		-0.00013991		 0.00029116		-0.00092450
Si		1.20401305		0.06746706		1.78148163		 0.00020023		-0.00043344		-0.00013502
Si		3.61203761		2.66236674		5.34444540		-0.00020023		-0.00043344		 0.00013502
O		1.71287702		5.07043378		3.45903572		 0.00030647		 0.00061957		 0.00025576
O		3.10317262		2.47553358		3.66689285		-0.00030647		 0.00061957		-0.00025576
O		4.12208979		2.85438975		6.99267749		 0.00004516		 0.00046272		-0.00033131
O		0.69395984		0.25949007		0.13325005		-0.00004516		 0.00046272		 0.00033131
O		4.43172575		4.16740864		4.89449972		 0.00064266		 0.00073817		 0.00022454
O		0.38432388		1.57250896		2.23142783		-0.00064266		 0.00073817		-0.00022454
O		2.06266090		3.43045776		5.78698652		-0.00041250		-0.00087296		 0.00048012
O		2.75338873		0.83555808		1.33894103		 0.00041250		-0.00087296		-0.00048012
O		4.75216256		4.35424180		2.15185606		-0.00027343		-0.00021429		-0.00004314
O		0.06388708		1.75934211		4.97407149		 0.00027343		-0.00021429		 0.00004314
O		1.94575310		3.65880871		1.23951303		 0.00027745		 0.00030364		-0.00012678
O		2.87029704		1.06390903		5.88641554		-0.00027745		 0.00030364		 0.00012678
H		2.19142881		4.16740864		3.49112356		-0.00004165		-0.00006590		-0.00024467
H		2.62462082		1.57250896		3.63480501		 0.00004165		-0.00006590		 0.00024467
H		4.63132067		3.62766960		7.02353875		-0.00042052		-0.00004167		-0.00036281
H		0.18472897		1.03276992		0.10238880		 0.00042052		-0.00004167		 0.00036281
H		1.33469172		2.83363085		5.61118551		-0.00056868		-0.00028175		-0.00001612
H		3.48135792		0.23873117		1.51474306		 0.00056868		-0.00028175		 0.00001612
H		3.74550873		4.93549863		5.20005472		-0.00047959		-0.00037093		-0.00015003
H		1.07054091		2.34059997		1.92587385		 0.00047959		-0.00037093		 0.00015003
H		4.64856047		4.42170886		3.07082073		-0.00024524		 0.00039772		-0.00071004
H		0.16748916		1.82680969		4.05510682		 0.00024524		 0.00039772		 0.00071004
H		2.09085405		3.59653099		0.30425012		 0.00035807		-0.00053204		 0.00045491
H		2.72519661		1.00163080		6.82167743		-0.00035807		-0.00053204		-0.00045491
