# total energy = -92489.5625692 eV

CRYSTAL
PRIMVEC
		18.50000256		0.00000000		2.21999584
		0.00000000		17.89999160		0.00000000
		0.63239463		0.00000000		5.27000497
PRIMECORD
   164 1
Mg		2.64531197		3.04299764		2.29120079		 0.00010999		-0.00034543		 0.00062394
Mg		16.48708709		14.85699023		5.19880002		-0.00010999		 0.00034543		-0.00062394
Mg		7.40151214		14.85699023		5.45900041		-0.00018714		-0.00057119		 0.00043485
Mg		11.73088692		3.04299764		2.03100039		 0.00018714		 0.00057119		-0.00043485
Mg		16.48708709		11.99299344		5.19880002		-0.00010999		-0.00034543		-0.00062394
Mg		2.64531197		5.90699630		2.29120079		 0.00010999		 0.00034543		 0.00062394
Mg		11.73088692		5.90699630		2.03100039		 0.00018714		-0.00057119		-0.00043485
Mg		7.40151214		11.99299344		5.45900041		-0.00018714		 0.00057119		 0.00043485
Mg		2.95518720		1.43199933		4.87350061		 0.00070270		 0.00042739		 0.00006741
Mg		16.17721185		16.46799041		2.61650019		-0.00070270		-0.00042739		-0.00006741
Mg		7.07898715		16.46799041		2.77130086		 0.00014428		-0.00004207		 0.00016282
Mg		12.05341191		1.43199933		4.71869995		-0.00014428		 0.00004207		-0.00016282
Mg		16.17721185		10.38199326		2.61650019		-0.00070270		 0.00042739		-0.00006741
Mg		2.95518720		7.51799647		4.87350061		 0.00070270		-0.00042739		 0.00006741
Mg		12.05341191		7.51799647		4.71869995		-0.00014428		-0.00004207		-0.00016282
Mg		7.07898715		10.38199326		2.77130086		 0.00014428		 0.00004207		 0.00016282
Mg		2.64531197		17.54198990		2.29120079		-0.00048906		 0.00015193		 0.00019152
Mg		16.48708709		0.35799983		5.19880002		 0.00048906		-0.00015193		-0.00019152
Mg		7.40151214		0.35799983		5.45900041		 0.00050288		 0.00046954		 0.00015498
Mg		11.73088692		17.54198990		2.03100039		-0.00050288		-0.00046954		-0.00015498
Mg		16.48708709		8.59199410		5.19880002		 0.00048906		 0.00015193		-0.00019152
Mg		2.64531197		9.30799563		2.29120079		-0.00048906		-0.00015193		 0.00019152
Mg		11.73088692		9.30799563		2.03100039		-0.00050288		 0.00046954		-0.00015498
Mg		7.40151214		8.59199410		5.45900041		 0.00050288		-0.00046954		 0.00015498
Mg		2.95518720		4.47499697		4.87350061		 0.00006849		0.00000000		 0.00016016
Mg		16.17721185		13.42499277		2.61650019		-0.00006849		0.00000000		-0.00016016
Mg		7.07898715		13.42499277		2.77130086		-0.00051622		-0.00000000		 0.00008225
Mg		12.05341191		4.47499697		4.71869995		 0.00051622		-0.00000000		-0.00008225
Si		0.73839620		14.67799125		1.59489964		 0.00019055		 0.00005769		-0.00006863
Si		18.39400472		3.22199849		5.89509930		-0.00019055		-0.00005769		 0.00006863
Si		9.19459501		3.22199849		5.20670029		-0.00018085		-0.00005246		-0.00023747
Si		9.93780218		14.67799125		2.28330051		 0.00018085		 0.00005246		 0.00023747
Si		18.39400472		5.72799731		5.89509930		-0.00019055		 0.00005769		 0.00006863
Si		0.73839620		12.17199242		1.59489964		 0.00019055		-0.00005769		-0.00006863
Si		9.93780218		12.17199242		2.28330051		 0.00018085		-0.00005246		 0.00023747
Si		9.19459501		5.72799731		5.20670029		-0.00018085		 0.00005246		-0.00023747
Si		1.05459538		16.46799041		4.22990026		-0.00028285		-0.00062201		-0.00026389
Si		18.07780368		1.43199933		3.26010054		 0.00028285		 0.00062201		 0.00026389
Si		8.87839583		1.43199933		2.57169967		 0.00001262		-0.00003266		 0.00030222
Si		10.25400322		16.46799041		4.91829927		-0.00001262		 0.00003266		-0.00030222
Si		18.07780368		7.51799647		3.26010054		 0.00028285		-0.00062201		 0.00026389
Si		1.05459538		10.38199326		4.22990026		-0.00028285		 0.00062201		-0.00026389
Si		10.25400322		10.38199326		4.91829927		-0.00001262		-0.00003266		-0.00030222
Si		8.87839583		7.51799647		2.57169967		 0.00001262		 0.00003266		 0.00030222
Si		4.09529560		16.46799041		0.69920040		-0.00033886		 0.00027065		 0.00011439
Si		15.03710345		1.43199933		6.79080040		 0.00033886		-0.00027065		-0.00011439
Si		5.52149643		1.43199933		3.46740077		-0.00006895		 0.00028962		 0.00016685
Si		13.61090449		16.46799041		4.02260003		 0.00006895		-0.00028962		-0.00016685
Si		15.03710345		7.51799647		6.79080040		 0.00033886		 0.00027065		-0.00011439
Si		4.09529560		10.38199326		0.69920040		-0.00033886		-0.00027065		 0.00011439
Si		13.61090449		10.38199326		4.02260003		 0.00006895		 0.00028962		-0.00016685
Si		5.52149643		7.51799647		3.46740077		-0.00006895		-0.00028962		 0.00016685
Si		4.41149665		14.67799125		3.33419916		 0.00016871		 0.00013664		 0.00008772
Si		14.72090241		3.22199849		4.15579978		-0.00016871		-0.00013664		-0.00008772
Si		5.20529538		3.22199849		0.83240015		 0.00015038		-0.00017987		 0.00016196
Si		13.92710554		14.67799125		6.65760065		-0.00015038		 0.00017987		-0.00016196
Si		14.72090241		5.72799731		4.15579978		-0.00016871		 0.00013664		-0.00008772
Si		4.41149665		12.17199242		3.33419916		 0.00016871		-0.00013664		 0.00008772
Si		13.92710554		12.17199242		6.65760065		-0.00015038		-0.00017987		-0.00016196
Si		5.20529538		5.72799731		0.83240015		 0.00015038		 0.00017987		 0.00016196
O		1.23648057		1.25299848		1.18720074		 0.00013202		 0.00003585		-0.00009371
O		17.89592035		16.64699126		6.30280006		-0.00013202		-0.00003585		 0.00009371
O		8.58267961		16.64699126		4.66579978		 0.00018773		 0.00070783		 0.00045718
O		10.54971945		1.25299848		2.82419916		-0.00018773		-0.00070783		-0.00045718
O		17.89592035		10.20299428		6.30280006		-0.00013202		 0.00003585		 0.00009371
O		1.23648057		7.69699546		1.18720074		 0.00013202		-0.00003585		-0.00009371
O		10.54971945		7.69699546		2.82419916		-0.00018773		 0.00070783		-0.00045718
O		8.58267961		10.20299428		4.66579978		 0.00018773		-0.00070783		 0.00045718
O		1.55267975		3.22199849		3.82219950		-0.00031525		 0.00013160		 0.00041435
O		17.57971931		14.67799125		3.66779944		 0.00031525		-0.00013160		-0.00041435
O		8.26648043		14.67799125		2.03079916		 0.00036901		-0.00042820		 0.00054990
O		10.86592049		3.22199849		5.45919978		-0.00036901		 0.00042820		-0.00054990
O		17.57971931		12.17199242		3.66779944		 0.00031525		 0.00013160		-0.00041435
O		1.55267975		5.72799731		3.82219950		-0.00031525		-0.00013160		 0.00041435
O		10.86592049		5.72799731		5.45919978		-0.00036901		-0.00042820		-0.00054990
O		8.26648043		12.17199242		2.03079916		 0.00036901		 0.00042820		 0.00054990
O		1.23648057		13.42499277		1.18720074		 0.00014320		-0.00000000		 0.00013110
O		17.89592035		4.47499697		6.30280006		-0.00014320		-0.00000000		-0.00013110
O		8.58267961		4.47499697		4.66579978		 0.00022361		0.00000000		-0.00053807
O		10.54971945		13.42499277		2.82419916		-0.00022361		0.00000000		 0.00053807
O		1.23648057		4.47499697		1.18720074		 0.00033647		-0.00000000		 0.00057365
O		17.89592035		13.42499277		6.30280006		-0.00033647		-0.00000000		-0.00057365
O		8.58267961		13.42499277		4.66579978		-0.00062846		0.00000000		 0.00049208
O		10.54971945		4.47499697		2.82419916		 0.00062846		0.00000000		-0.00049208
O		1.55267975		0.00000000		3.82219950		-0.00005861		-0.00002228		-0.00007329
O		17.57971931		0.00000000		3.66779944		 0.00005861		 0.00002228		 0.00007329
O		8.26648043		0.00000000		2.03079916		-0.00006569		 0.00017501		 0.00050851
O		10.86592049		0.00000000		5.45919978		 0.00006569		-0.00017501		-0.00050851
O		17.57971931		8.94999394		3.66779944		 0.00005861		-0.00002228		 0.00007329
O		1.55267975		8.94999394		3.82219950		-0.00005861		 0.00002228		-0.00007329
O		10.86592049		8.94999394		5.45919978		 0.00006569		 0.00017501		-0.00050851
O		8.26648043		8.94999394		2.03079916		-0.00006569		-0.00017501		 0.00050851
O		0.95662079		15.57298990		0.37449911		 0.00008725		-0.00019324		-0.00008821
O		18.17578013		2.32699984		7.11549983		-0.00008725		 0.00019324		 0.00008821
O		8.67281913		2.32699984		3.89749993		 0.00005142		-0.00019902		 0.00027226
O		10.45957992		15.57298990		3.59249901		-0.00005142		 0.00019902		-0.00027226
O		18.17578013		6.62299596		7.11549983		-0.00008725		-0.00019324		 0.00008821
O		0.95662079		11.27699378		0.37449911		 0.00008725		 0.00019324		-0.00008821
O		10.45957992		11.27699378		3.59249901		-0.00005142		-0.00019902		-0.00027226
O		8.67281913		6.62299596		3.89749993		 0.00005142		 0.00019902		 0.00027226
O		1.26649603		15.57298990		2.95680080		 0.00020047		 0.00029246		-0.00047199
O		17.86590303		2.32699984		4.53320001		-0.00020047		-0.00029246		 0.00047199
O		8.35029601		2.32699984		1.20980037		 0.00004473		-0.00093711		-0.00074433
O		10.78210305		15.57298990		6.28020043		-0.00004473		 0.00093711		 0.00074433
O		17.86590303		6.62299596		4.53320001		-0.00020047		 0.00029246		 0.00047199
O		1.26649603		11.27699378		2.95680080		 0.00020047		-0.00029246		-0.00047199
O		10.78210305		11.27699378		6.28020043		-0.00004473		-0.00093711		 0.00074433
O		8.35029601		6.62299596		1.20980037		 0.00004473		 0.00093711		-0.00074433
O		3.54661966		3.22199849		0.68530039		 0.00035164		 0.00019102		 0.00018075
O		15.58577940		14.67799125		6.80470042		-0.00035164		-0.00019102		-0.00018075
O		6.08282026		14.67799125		3.58670051		-0.00018197		 0.00018636		-0.00008185
O		13.04957879		3.22199849		3.90330029		 0.00018197		-0.00018636		 0.00008185
O		15.58577940		12.17199242		6.80470042		-0.00035164		 0.00019102		-0.00018075
O		3.54661966		5.72799731		0.68530039		 0.00035164		-0.00019102		 0.00018075
O		13.04957879		5.72799731		3.90330029		 0.00018197		 0.00018636		 0.00008185
O		6.08282026		12.17199242		3.58670051		-0.00018197		-0.00018636		-0.00008185
O		3.86914465		1.25299848		3.37299994		-0.00017298		-0.00011924		 0.00058008
O		15.26325627		16.64699126		4.11699900		 0.00017298		 0.00011924		-0.00058008
O		5.77294317		16.64699126		1.00440068		-0.00054781		 0.00012696		 0.00045965
O		13.35945589		1.25299848		6.48560012		 0.00054781		-0.00012696		-0.00045965
O		15.26325627		10.20299428		4.11699900		 0.00017298		-0.00011924		-0.00058008
O		3.86914465		7.69699546		3.37299994		-0.00017298		 0.00011924		 0.00058008
O		13.35945589		7.69699546		6.48560012		 0.00054781		 0.00012696		-0.00045965
O		5.77294317		10.20299428		1.00440068		-0.00054781		-0.00012696		 0.00045965
O		3.54661966		0.00000000		0.68530039		 0.00034314		 0.00060423		-0.00016832
O		15.58577940		0.00000000		6.80470042		-0.00034314		-0.00060423		 0.00016832
O		6.08282026		0.00000000		3.58670051		-0.00032870		 0.00051236		 0.00002392
O		13.04957879		0.00000000		3.90330029		 0.00032870		-0.00051236		-0.00002392
O		15.58577940		8.94999394		6.80470042		-0.00034314		 0.00060423		 0.00016832
O		3.54661966		8.94999394		0.68530039		 0.00034314		-0.00060423		-0.00016832
O		13.04957879		8.94999394		3.90330029		 0.00032870		 0.00051236		-0.00002392
O		6.08282026		8.94999394		3.58670051		-0.00032870		-0.00051236		 0.00002392
O		3.79957938		13.42499277		2.79330051		 0.00058132		-0.00000000		 0.00056904
O		15.33281968		4.47499697		4.69670029		-0.00058132		-0.00000000		-0.00056904
O		6.33577998		4.47499697		5.69470063		-0.00003046		0.00000000		-0.00011475
O		12.79661908		13.42499277		1.79530017		 0.00003046		0.00000000		 0.00011475
O		3.86282070		4.47499697		3.32029915		-0.00063033		0.00000000		-0.00037588
O		15.26958022		13.42499277		4.16969979		 0.00063033		0.00000000		 0.00037588
O		5.76661922		13.42499277		0.95169989		 0.00006949		0.00000000		-0.00063121
O		13.36577984		4.47499697		6.53829905		-0.00006949		0.00000000		 0.00063121
O		3.88972077		15.57298990		2.02500066		 0.00025915		-0.00025248		-0.00002306
O		15.24268015		2.32699984		5.46500015		-0.00025915		 0.00025248		 0.00002306
O		6.05592020		2.32699984		4.88199900		 0.00048737		 0.00019772		-0.00007290
O		13.07647886		15.57298990		2.60799994		-0.00048737		-0.00019772		 0.00007290
O		15.24268015		6.62299596		5.46500015		-0.00025915		-0.00025248		 0.00002306
O		3.88972077		11.27699378		2.02500066		 0.00025915		 0.00025248		-0.00002306
O		13.07647886		11.27699378		2.60799994		-0.00048737		 0.00019772		 0.00007290
O		6.05592020		6.62299596		4.88199900		 0.00048737		-0.00019772		-0.00007290
O		4.20591995		15.57298990		4.65999942		 0.00091660		 0.00013539		 0.00000688
O		14.92647911		2.32699984		2.82999953		-0.00091660		-0.00013539		-0.00000688
O		5.73971916		2.32699984		2.24700024		-0.00000072		 0.00009036		-0.00019998
O		13.39267990		15.57298990		5.24300056		 0.00000072		-0.00009036		 0.00019998
O		14.92647911		6.62299596		2.82999953		-0.00091660		 0.00013539		-0.00000688
O		4.20591995		11.27699378		4.65999942		 0.00091660		-0.00013539		 0.00000688
O		13.39267990		11.27699378		5.24300056		 0.00000072		 0.00009036		 0.00019998
O		5.73971916		6.62299596		2.24700024		-0.00000072		-0.00009036		-0.00019998
H		18.03986000		0.00000000		2.94389950		 0.00018876		-0.00015958		-0.00034483
H		1.09253906		0.00000000		4.54609944		-0.00018876		 0.00015958		 0.00034483
H		10.21605955		0.00000000		4.60210009		 0.00014879		-0.00014985		-0.00020929
H		8.91634137		0.00000000		2.88790071		-0.00014879		 0.00014985		 0.00020929
H		1.09253906		8.94999394		4.54609944		-0.00018876		-0.00015958		 0.00034483
H		18.03986000		8.94999394		2.94389950		 0.00018876		 0.00015958		-0.00034483
H		8.91634137		8.94999394		2.88790071		-0.00014879		-0.00014985		 0.00020929
H		10.21605955		8.94999394		4.60210009		 0.00014879		 0.00014985		-0.00020929
