# total energy = -44005.4532352 eV

CRYSTAL
PRIMVEC
		9.81800160		1.17815782		0.00000000
		2.16563691		18.04700061		0.00000000
		-1.33411825		-0.16009379		5.10350141
PRIMECORD
   82 1
Si		2.53944751		1.79885204		1.51267870		-0.00020873		 0.00020766		-0.00001421
Si		8.11007176		17.26621358		3.59082469		 0.00020873		-0.00020766		 0.00001421
Si		6.30825913		2.25110860		3.59082469		 0.00028086		-0.00025781		-0.00012723
Si		4.34126015		16.81395702		1.51267870		-0.00028086		 0.00025781		 0.00012723
Si		8.53126776		11.41143224		1.51267870		-0.00035398		 0.00041646		-0.00002539
Si		2.11825152		7.65363437		3.59082469		 0.00035398		-0.00041646		 0.00002539
Si		2.48207975		10.68553000		3.59082469		 0.00035643		-0.00034799		-0.00009213
Si		8.16744052		8.37953661		1.51267870		-0.00035643		 0.00034799		 0.00009213
Si		2.13209830		3.29922853		4.10423827		-0.00031486		 0.00012953		 0.00005311
Si		8.51742197		15.76583709		0.99926611		 0.00031486		-0.00012953		-0.00005311
Si		7.09286408		3.89452133		0.99926611		-0.00000489		-0.00015491		-0.00029590
Si		3.55665619		15.17054626		4.10423827		 0.00000489		 0.00015491		 0.00029590
Si		8.12391755		12.91180873		4.10423827		-0.00042606		 0.00005579		 0.00005219
Si		2.52560073		6.15325689		0.99926611		 0.00042606		-0.00005579		-0.00005219
Si		3.26668371		12.32894075		0.99926611		-0.00016755		 0.00013149		-0.00021569
Si		7.38283557		6.73612487		4.10423827		 0.00016755		-0.00013149		 0.00021569
O		2.84509712		2.44918586		3.00290174		-0.00005425		-0.00051743		 0.00033247
O		7.80442314		16.61588075		2.10060165		 0.00005425		 0.00051743		-0.00033247
O		6.15203863		2.84601872		2.10060165		 0.00043291		-0.00004916		-0.00016451
O		4.49747965		16.21904789		3.00290174		-0.00043291		 0.00004916		 0.00016451
O		8.83691737		12.06176606		3.00290174		-0.00001036		-0.00047630		 0.00034330
O		1.81260290		7.00329956		2.10060165		 0.00001036		 0.00047630		-0.00034330
O		2.32586024		11.28043913		2.10060165		 0.00046455		-0.00002905		-0.00013487
O		8.32366002		7.78462748		3.00290174		-0.00046455		 0.00002905		 0.00013487
O		0.99327767		1.64888598		1.10797068		-0.00045394		 0.00010098		-0.00019660
O		9.65624161		17.41617964		3.99553271		 0.00045394		-0.00010098		 0.00019660
O		7.86309223		2.47326420		3.99553271		 0.00030175		 0.00014252		 0.00014513
O		2.78642804		16.59180241		1.10797068		-0.00030175		-0.00014252		-0.00014513
O		6.98509791		11.26146717		1.10797068		-0.00040752		 0.00010427		-0.00016047
O		3.66442235		7.80360043		3.99553271		 0.00040752		-0.00010427		 0.00016047
O		4.03691186		10.90768461		3.99553271		 0.00023324		 0.00016516		 0.00015347
O		6.61260840		8.15738200		1.10797068		-0.00023324		-0.00016516		-0.00015347
O		3.06621839		4.77915277		4.04860889		 0.00026847		-0.00013478		-0.00018900
O		7.58330187		14.28591285		1.05489351		-0.00026847		 0.00013478		 0.00018900
O		6.49181917		5.19022498		1.05489351		 0.00003384		 0.00055957		 0.00002887
O		4.15770109		13.87484064		4.04860889		-0.00003384		-0.00055957		-0.00002887
O		9.05803765		14.39173396		4.04860889		 0.00025405		-0.00005690		-0.00028660
O		1.59148163		4.67333265		1.05489351		-0.00025405		 0.00005690		 0.00028660
O		2.66563880		13.62464638		1.05489351		 0.00015155		 0.00030241		-0.00001279
O		7.98388048		5.44042122		4.04860889		-0.00015155		-0.00030241		 0.00001279
O		2.91896968		0.35027612		1.49073329		 0.00004896		 0.00005792		-0.00011515
O		5.56490972		0.66778889		3.61277010		-0.00004896		-0.00005792		 0.00011515
O		8.91078992		9.96285732		1.49073329		-0.00002768		-0.00022124		-0.00005884
O		1.73873034		9.10221028		3.61277010		 0.00002768		 0.00022124		 0.00005884
O		0.56828847		3.11334965		3.69493708		-0.00035687		 0.00046432		-0.00054160
O		10.08123179		15.95171597		1.40856730		 0.00035687		-0.00046432		 0.00054160
O		8.65710702		4.08400950		1.40856730		-0.00033601		 0.00020218		 0.00021128
O		1.99241226		14.98105711		3.69493708		 0.00033601		-0.00020218		-0.00021128
O		6.56010773		12.72593084		3.69493708		-0.00032949		 0.00045862		-0.00052570
O		4.08941155		6.33913577		1.40856730		 0.00032949		-0.00045862		 0.00052570
O		4.83092764		12.51842990		1.40856730		-0.00030307		 0.00024187		 0.00020038
O		5.81859164		6.54663671		3.69493708		 0.00030307		-0.00024187		-0.00020038
O		0.12188982		0.01462698		3.65002578		-0.00000782		 0.00020748		-0.00012354
O		8.36198958		1.00343903		1.45347761		 0.00000782		-0.00020748		 0.00012354
O		6.11371006		9.62720718		3.65002578		-0.00019398		 0.00024807		-0.00018598
O		4.53581020		9.43785943		1.45347761		 0.00019398		-0.00024807		 0.00018598
O		3.56043753		2.81606269		0.50626819		 0.00011130		 0.00004011		 0.00009398
O		7.08908175		16.24900293		4.59723618		-0.00011130		-0.00004011		-0.00009398
O		5.50513313		3.04942684		4.59723618		 0.00023453		 0.00072153		-0.00061720
O		5.14438713		16.01563977		0.50626819		-0.00023453		-0.00072153		 0.00061720
O		9.55225777		12.42864388		0.50626819		 0.00011255		 0.00006049		 0.00006830
O		1.09726249		6.63642273		4.59723618		-0.00011255		-0.00006049		-0.00006830
O		1.67895276		11.48384724		4.59723618		 0.00024012		 0.00074282		-0.00062182
O		8.97056651		7.58121937		0.50626819		-0.00024012		-0.00074282		 0.00062182
Ca		-0.06587776		4.92980014		2.55175169		 0.00019242		-0.00043104		-0.00023517
Ca		0.89739840		12.95710569		2.55175169		-0.00019242		 0.00043104		 0.00023517
Ca		5.92594249		14.54238034		2.55175169		 0.00019278		-0.00040565		-0.00025392
Ca		4.72357778		4.52268627		2.55175169		-0.00019278		 0.00040565		 0.00025392
Mg		0.00000000		0.00000000		0.00000000		0.00000000		0.00000000		0.00000000
Mg		5.99182024		9.61258020		0.00000000		0.00000000		0.00000000		0.00000000
Mg		0.38245211		3.18709959		0.00000000		-0.00001081		 0.00038031		-0.00057811
Mg		1.78318777		14.85990102		0.00000000		 0.00001081		-0.00038031		 0.00057811
Mg		6.37427235		12.79967979		0.00000000		 0.00001409		 0.00042742		-0.00059630
Mg		5.60936814		6.42547962		0.00000000		-0.00001409		-0.00042742		 0.00059630
Mg		-0.47691734		1.50448019		2.55175169		 0.00025849		-0.00015955		-0.00013787
Mg		1.30843699		16.38242662		2.55175169		-0.00025849		 0.00015955		 0.00013787
Mg		5.51490291		11.11706040		2.55175169		 0.00023301		-0.00014292		-0.00012810
Mg		5.13461736		7.94800720		2.55175169		-0.00023301		 0.00014292		 0.00012810
H		0.92650897		0.11118064		3.92969846		 0.00008150		-0.00001112		 0.00005190
H		7.55737044		0.90688437		1.17380592		-0.00008150		 0.00001112		-0.00005190
H		6.91832921		9.72376183		3.92969846		 0.00026063		-0.00005869		 0.00008646
H		3.73119007		9.34130478		1.17380592		-0.00026063		 0.00005869		-0.00008646
