# total energy = -9137.76723918 eV

CRYSTAL
PRIMVEC
		4.79969965		0.00000000		0.00000000
		-2.39984982		4.61851578		0.00000000
		0.00000000		0.00000000		7.32400088
PRIMECORD
   14 1
Mg		1.59686007		0.00000000		3.33974381		-0.00009522		0.00000000		 0.00008992
Mg		-0.79843004		1.53657968		3.33974381		-0.00026937		 0.00000032		 0.00014624
Mg		1.60141979		3.08193370		3.33974381		-0.00026937		-0.00000032		 0.00014624
Si		0.00000000		3.07900876		0.56394791		 0.00017618		-0.00003401		 0.00003569
Si		2.39984982		1.53950510		0.56394791		 0.00017618		 0.00003401		 0.00003569
O		0.00000000		3.07900876		2.13714306		-0.00016490		 0.00010485		 0.00007507
O		2.39984982		1.53950510		2.13714306		-0.00016490		-0.00010485		 0.00007507
O		2.40465000		0.00000000		7.27273145		-0.00009729		0.00000000		 0.00003022
O		-1.20232476		2.31387472		7.27273145		 0.00013279		-0.00000094		-0.00060920
O		1.19752506		2.30463770		7.27273145		 0.00013279		 0.00000094		-0.00060920
O		3.17740165		0.00000000		4.33580772		-0.00024405		0.00000000		-0.00032287
O		-1.58870106		3.05745571		4.33580772		-0.00000010		 0.00016487		 0.00041528
O		0.81114876		1.56105767		4.33580772		-0.00000010		-0.00016487		 0.00041528
O		0.00000000		0.00000000		2.21917185		 0.00068737		0.00000000		 0.00007657
