# total energy = -9138.47117613 eV

CRYSTAL
PRIMVEC
		5.06634992		0.00000000		0.00000000
		-2.53317496		4.61851499		0.00000000
		0.00000000		0.00000000		7.32400157
PRIMECORD
   14 1
Mg		1.68557513		0.00000000		3.33974395		 0.00002416		-0.00000000		 0.00004586
Mg		-0.84278680		1.53657985		3.33974395		 0.00014981		 0.00003998		 0.00038729
Mg		1.69038816		3.08193412		3.33974395		 0.00014981		-0.00003998		 0.00038729
Si		0.00000000		3.07900881		0.56394808		 0.00003057		-0.00007666		-0.00068206
Si		2.53317496		1.53950516		0.56394808		 0.00003057		 0.00007666		-0.00068206
O		0.00000000		3.07900881		2.13714295		-0.00033439		-0.00019478		-0.00019647
O		2.53317496		1.53950516		2.13714295		-0.00033439		 0.00019478		-0.00019647
O		2.53824080		0.00000000		7.27273214		 0.00075156		0.00000000		-0.00042177
O		-1.26912116		2.31387496		7.27273214		 0.00020177		-0.00044331		 0.00014421
O		1.26405380		2.30463800		7.27273214		 0.00020177		 0.00044331		 0.00014421
O		3.35392415		0.00000000		4.33580810		-0.00021906		-0.00000000		 0.00015700
O		-1.67696182		3.05745605		4.33580810		-0.00031431		-0.00046904		 0.00042847
O		0.85621314		1.56105792		4.33580810		-0.00031431		 0.00046904		 0.00042847
O		0.00000000		0.00000000		2.21917222		-0.00002356		0.00000000		 0.00005603
