# total energy = -20636.0367604 eV

CRYSTAL
PRIMVEC
		10.20140980		0.00000000		0.00000000
		0.00000000		5.38513041		0.00000000
		0.00000000		0.00000000		4.75533617
PRIMECORD
   28 1
Mg		0.00000000		0.00000000		0.00000000		0.00000000		0.00000000		0.00000000
Mg		5.10070490		0.00000000		2.37767013		0.00000000		0.00000000		0.00000000
Mg		0.00000000		2.69256622		0.00000000		0.00000000		0.00000000		0.00000000
Mg		5.10070490		2.69256622		2.37767013		0.00000000		0.00000000		0.00000000
Mg		2.82885094		1.34628311		4.71492022		 0.00060459		0.00000000		-0.00054206
Mg		7.37255886		4.03884933		0.04042003		-0.00060459		0.00000000		 0.00054206
Mg		2.27185396		4.03884933		2.33725010		-0.00060459		0.00000000		-0.00054206
Mg		7.92955584		1.34628311		2.41809015		 0.00060459		0.00000000		 0.00054206
Si		0.95893252		1.34628311		2.02767710		 0.00030143		0.00000000		-0.00004107
Si		9.24247830		4.03884933		2.72766315		-0.00030143		0.00000000		 0.00004107
Si		4.14177340		4.03884933		4.40534722		-0.00030143		0.00000000		-0.00004107
Si		6.05963742		1.34628311		0.34999303		 0.00030143		0.00000000		 0.00004107
O		0.93444914		1.34628311		3.63926215		 0.00041495		-0.00000000		 0.00022234
O		9.26696066		4.03884933		1.11607810		-0.00041495		0.00000000		-0.00022234
O		4.16625576		4.03884933		1.26159203		-0.00041495		0.00000000		 0.00022234
O		6.03515404		1.34628311		3.49374822		 0.00041495		0.00000000		-0.00022234
O		4.55901004		1.34628311		1.05140626		 0.00004001		0.00000000		-0.00014610
O		5.64239976		4.03884933		3.70393501		-0.00004001		0.00000000		 0.00014610
O		0.54169486		4.03884933		3.42907639		-0.00004001		-0.00000000		-0.00014610
O		9.65971596		1.34628311		1.32626386		 0.00004001		-0.00000000		 0.00014610
O		1.65976937		0.17878583		1.32103258		-0.00026099		 0.00047768		-0.00035982
O		8.54164042		5.20634458		3.43430665		 0.00026099		-0.00047768		 0.00035982
O		3.44093552		5.20634458		3.69870271		 0.00026099		-0.00047768		-0.00035982
O		6.76047529		0.17878583		1.05663652		-0.00026099		 0.00047768		 0.00035982
O		8.54164042		2.87135307		3.43430665		 0.00026099		 0.00047768		 0.00035982
O		1.65976937		2.51378040		1.32103258		-0.00026099		-0.00047768		-0.00035982
O		6.76047529		2.51378040		1.05663652		-0.00026099		-0.00047768		 0.00035982
O		3.44093552		2.87135307		3.69870271		 0.00026099		 0.00047768		-0.00035982
