# total energy = -41275.4890303 eV	

CRYSTAL	
PRIMVEC	
		5.76552822		0.00000000		0.00000000	
		0.00000000		11.55844247		0.00000000	
		0.00000000		0.00000000		8.36854001	
PRIMCOORD
   56 1	
Mg		0.00000000		0.00000000		0.00000000		 0.00000001		-0.00000000		-0.00000001	
Mg		0.00000000		5.77922067		0.00000000		-0.00000000		0.00000000		0.00000000	
Mg		2.88276525		5.77922124		4.18426944		 0.00000002		 0.00000001		 0.00000002	
Mg		2.88276525		0.00000000		4.18426944		-0.00000000		-0.00000001		 0.00000003	
Mg		0.00000000		2.88961062		8.12104804		-0.00000000		-0.00000001		 0.00012133	
Mg		0.00000000		8.66883129		0.24749026		-0.00000000		-0.00000001		-0.00012141	
Mg		2.88276525		8.66883129		3.93677860		 0.00000001		0.00000000		 0.00012139	
Mg		2.88276525		2.88961062		4.43175970		 0.00000002		-0.00000001		-0.00012132	
Mg		1.44138263		1.47595136		2.09213472		-0.00000001		-0.00008244		0.00000000	
Mg		4.32414731		10.08249054		6.27640358		-0.00000004		 0.00008243		-0.00000003	
Mg		4.32414731		4.30326988		2.09213472		-0.00000002		 0.00008240		 0.00000002	
Mg		1.44138263		7.25517260		6.27640358		 0.00000003		-0.00008243		-0.00000001	
Mg		4.32414731		7.25517260		6.27640358		-0.00000003		-0.00008242		-0.00000002	
Mg		1.44138263		4.30326988		2.09213472		-0.00000000		 0.00008242		 0.00000001	
Mg		1.44138263		10.08249054		6.27640358		 0.00000003		 0.00008245		-0.00000002	
Mg		4.32414788		1.47595136		2.09213472		-0.00000000		-0.00008242		 0.00000001	
Si		0.00000000		1.38619858		5.15941718		 0.00000006		-0.00019924		-0.00024747	
Si		0.00000000		10.17224389		3.20912169		-0.00000013		 0.00019921		 0.00024761	
Si		0.00000000		4.39302266		5.15941718		-0.00000007		 0.00019927		-0.00024740	
Si		0.00000000		7.16541925		3.20912169		 0.00000005		-0.00019924		 0.00024753	
Si		2.88276468		7.16541925		0.97514775		-0.00000002		-0.00019912		-0.00024720	
Si		2.88276468		4.39302266		7.39339056		 0.00000005		 0.00019918		 0.00024716	
Si		2.88276468		10.17224389		0.97514775		 0.00000012		 0.00019912		-0.00024721	
Si		2.88276468		1.38619858		7.39339056		-0.00000000		-0.00019918		 0.00024720	
O		0.00000000		2.88961062		1.80891669		 0.00000003		-0.00000002		-0.00019782	
O		0.00000000		8.66883129		6.55962161		-0.00000002		-0.00000002		 0.00019788	
O		2.88276525		8.66883129		5.99318498		-0.00000001		0.00000000		-0.00019761	
O		2.88276525		2.88961062		2.37535332		-0.00000003		 0.00000002		 0.00019767	
O		0.00000000		2.88961062		5.99454289		-0.00000000		-0.00000000		 0.00004373	
O		0.00000000		8.66883129		2.37399541		0.00000000		-0.00000004		-0.00004364	
O		2.88276525		8.66883129		1.81027345		0.00000000		-0.00000000		 0.00004377	
O		2.88276468		2.88961062		6.55826485		 0.00000001		 0.00000003		-0.00004378	
O		0.00000000		11.44014577		2.14121588		 0.00000004		-0.00008641		 0.00006621	
O		0.00000000		0.11829613		6.22732242		0.00000000		 0.00008643		-0.00006620	
O		0.00000000		5.89751737		2.14121588		 0.00000004		 0.00008649		 0.00006621	
O		0.00000000		5.66092454		6.22732242		-0.00000001		-0.00008649		-0.00006623	
O		2.88276525		5.66092454		6.32548532		0.00000000		-0.00008642		 0.00006621	
O		2.88276525		5.89751737		2.04305298		-0.00000002		 0.00008637		-0.00006615	
O		2.88276468		0.11829613		6.32548532		 0.00000002		 0.00008640		 0.00006619	
O		2.88276525		11.44014577		2.04305298		-0.00000004		-0.00008637		-0.00006616	
O		1.50710738		1.41937465		8.30588151		 0.00002053		-0.00006339		 0.00017398	
O		4.25842255		10.13906725		0.06265679		-0.00002058		 0.00006339		-0.00017391	
O		4.25842255		4.35984658		8.30588151		-0.00002047		 0.00006342		 0.00017394	
O		1.50710738		7.19859532		0.06265679		 0.00002050		-0.00006344		-0.00017398	
O		4.25842255		7.19859532		0.06265679		-0.00002045		-0.00006342		-0.00017402	
O		1.50710738		4.35984658		8.30588151		 0.00002048		 0.00006344		 0.00017400	
O		1.50710738		10.13906782		0.06265679		 0.00002047		 0.00006342		-0.00017402	
O		4.25842255		1.41937465		8.30588151		-0.00002049		-0.00006341		 0.00017395	
O		4.38987264		7.19859532		4.12161264		 0.00002072		-0.00006341		 0.00017374	
O		1.37565787		4.35984658		4.24692566		-0.00002070		 0.00006337		-0.00017381	
O		1.37565730		10.13906782		4.12161264		-0.00002077		 0.00006343		 0.00017376	
O		4.38987264		1.41937408		4.24692623		 0.00002065		-0.00006333		-0.00017386	
O		1.37565787		1.41937408		4.24692623		-0.00002077		-0.00006336		-0.00017385	
O		4.38987207		10.13906725		4.12161264		 0.00002090		 0.00006340		 0.00017375	
O		4.38987264		4.35984658		4.24692623		 0.00002068		 0.00006336		-0.00017384	
O		1.37565787		7.19859532		4.12161264		-0.00002081		-0.00006341		 0.00017373	
