# total energy = -35731.4267514 eV	

CRYSTAL	
PRIMVEC	
		7.86029782		0.00000000		-0.62882225	
		-3.93015285		6.80721671		0.31441507	
		-0.76583918		0.00000000		9.57300161	
PRIMCOORD
   46 1	
Mg		0.84318010		3.09524298		3.60122074		 0.00139879		 0.00070897		-0.00091514	
Mg		0.38492406		6.24562391		3.63788082		 0.00121080		-0.00226737		-0.00062506	
Mg		-2.11425819		4.27357205		3.83781625		 0.00041249		 0.00250872		-0.00007728	
Mg		2.11328119		3.71197689		8.25547923		 0.00205751		 0.00059319		 0.00040020	
Mg		2.57153722		0.56159516		8.21881916		 0.00295300		 0.00202696		-0.00148325	
Mg		5.07071869		2.53364703		8.01888373		-0.00304927		 0.00058978		 0.00210808	
Mg		0.72565906		1.65960026		1.01391979		-0.00162215		-0.00082168		-0.00074437	
Mg		2.00060021		6.68060536		0.91192434		-0.00034086		 0.00036153		-0.00039106	
Mg		-2.98518863		5.27423409		1.31078666		-0.00007496		 0.00164855		 0.00197330	
Mg		2.64895069		5.14762039		5.61592165		 0.00143150		-0.00316751		 0.00118595	
Mg		1.37401032		0.12661371		5.71791789		 0.00034368		-0.00152954		-0.00096187	
Mg		6.35979917		1.53298577		5.31905478		-0.00104756		-0.00349510		-0.00237549	
Mg		-0.07880524		4.53814579		0.98506233		-0.00038160		-0.00018556		 0.00108021	
Mg		3.46842487		2.26907329		5.45714965		-0.00030023		 0.00042171		 0.00241139	
Si		3.79681683		2.26907329		1.35224737		-0.00004384		 0.00146797		 0.00114677	
Si		-0.51625325		4.53814579		6.45315930		-0.00017556		 0.00008463		 0.00049193	
Si		-0.30771483		0.00000000		3.84643106		-0.00070931		 0.00040528		 0.00065641	
Si		-0.69063521		0.00000000		8.63293187		 0.00088010		-0.00095701		-0.00005872	
O		0.71770031		0.18651761		9.22603477		-0.00008183		 0.00238271		 0.00272738	
O		6.21873071		1.17560703		8.78595304		-0.00218846		-0.00111078		-0.00086718	
O		2.61164007		5.44509522		9.07451972		-0.00131224		-0.00026567		 0.00039780	
O		2.10045004		6.62070225		4.35954907		 0.00031777		-0.00052756		-0.00093880	
O		-3.40058114		5.63161283		4.79963081		 0.00090542		 0.00065447		-0.00009750	
O		0.20651108		1.36212464		4.51106412		-0.00146833		-0.00074620		 0.00126014	
O		2.98694708		0.67255317		4.36852819		-0.00150770		 0.00029253		-0.00075677	
O		5.22791912		2.57176669		4.18925017		-0.00192842		 0.00067373		 0.00150205	
O		2.46266490		3.56289921		4.41046991		 0.00026318		-0.00000559		 0.00098711	
O		-0.18166335		6.13466590		9.37788338		-0.00269553		 0.00076575		 0.00063277	
O		-2.42263539		4.23545238		9.55716140		 0.00143318		-0.00061599		-0.00075784	
O		0.34261882		3.24432065		9.33594087		 0.00033723		-0.00103477		 0.00048324	
O		2.23111370		2.00608767		2.02823306		-0.00180918		 0.00024490		-0.00099297	
O		4.74090814		1.08302913		1.82744916		-0.00097789		-0.00029099		-0.00033684	
O		4.28540332		3.71810385		1.86389002		 0.00185667		 0.00134154		-0.00198301	
O		0.96076738		4.80113219		6.88572703		-0.00025405		-0.00123860		-0.00013448	
O		-1.54902785		5.72419073		7.08651093		 0.00035977		-0.00001130		 0.00013457	
O		-1.09352303		3.08911601		7.05007008		 0.00132495		 0.00275578		-0.00061818	
O		-0.56055034		2.97271312		2.32575837		-0.00068021		 0.00112953		-0.00414868	
O		1.36050734		4.99445728		2.17207325		 0.00111095		 0.00056246		-0.00028055	
O		-1.35090291		5.64726932		2.38898597		-0.00093165		-0.00116632		 0.00070723	
O		3.74048265		3.83450674		6.73754120		 0.00239370		-0.00170472		-0.00214490	
O		1.81942575		1.81276337		6.89122632		 0.00203961		-0.00152782		-0.00062510	
O		4.53083601		1.15994975		6.67431280		 0.00012196		 0.00282860		-0.00147125	
O		3.93014970		2.26907329		-0.31441191		-0.00048312		-0.00122881		 0.00239849	
O		-0.38292038		4.53814579		4.78650002		 0.00041666		 0.00103782		-0.00001945	
O		-0.17790517		0.00000000		2.22380786		 0.00097818		-0.00101046		-0.00016644	
O		-0.56082476		0.00000000		7.01030788		-0.00048316		-0.00057772		 0.00128713	
