# total energy = -12335.8009657 eV	

CRYSTAL	
PRIMVEC	
		2.46199927		-0.19695945		0.00000000	
		-0.64423979		8.05299987		0.00000000	
		0.00000000		0.00000000		6.10800032	
PRIMCOORD
   20 1	
O		-0.04702995		0.58786906		1.52699996		-0.00018110		 0.00036263		 0.00000927	
O		-0.59721108		7.46513081		4.58099987		 0.00018110		-0.00036263		-0.00000927	
O		0.86185003		4.51588902		1.52699996		-0.00018111		 0.00036251		 0.00000933	
O		0.95590895		3.34015091		4.58099987		 0.00018111		-0.00036251		-0.00000933	
O		-0.23385900		2.92323904		2.69362797		 0.00022046		 0.00000491		 0.00062537	
O		-0.41038104		5.12976083		3.41437186		-0.00022046		-0.00000491		-0.00062537	
O		-0.41038104		5.12976083		5.74762789		-0.00021180		 0.00000978		 0.00061752	
O		-0.23385900		2.92323904		0.36037194		 0.00021180		-0.00000978		-0.00061752	
O		0.67502099		6.85125975		2.69362797		 0.00022037		 0.00000481		 0.00062536	
O		1.14273898		1.00478092		3.41437186		-0.00022037		-0.00000481		-0.00062536	
O		1.14273898		1.00478092		5.74762789		-0.00021171		 0.00000988		 0.00061751	
O		0.67502099		6.85125975		0.36037194		 0.00021171		-0.00000988		-0.00061751	
Si		0.00000000		0.00000000		0.00000000		0.00000000		0.00000000		0.00000000	
Si		0.00000000		0.00000000		3.05399991		0.00000000		0.00000000		0.00000000	
Si		0.90887998		3.92801997		0.00000000		0.00000000		0.00000000		0.00000000	
Si		0.90887998		3.92801997		3.05399991		0.00000000		0.00000000		0.00000000	
Mg		-0.16299311		2.03740908		4.58099987		 0.00066273		-0.00067746		-0.00000766	
Mg		-0.48124693		6.01559079		1.52699996		-0.00066273		 0.00067746		 0.00000766	
Mg		0.74588687		5.96542979		4.58099987		 0.00066288		-0.00067730		-0.00000767	
Mg		1.07187310		1.89061088		1.52699996		-0.00066288		 0.00067730		 0.00000767	
