# total energy = -11146.1076434 eV

CRYSTAL
PRIMVEC
		7.73344597		0.00000000		0.00000744
		0.00000000		4.56041763		0.00000000
		0.00000744		0.00000000		8.64115121
PRIMECORD
   12 1
Ca		0.17101575		1.14010404		5.86264171		-0.00000585		 0.00000002		-0.00006398
Ca		7.56243617		3.42031360		2.77851546		 0.00000205		-0.00000001		 0.00003930
Ca		3.69571616		3.42031285		1.54205494		 0.00000058		-0.00000001		-0.00003316
Ca		4.03773502		1.14010404		7.09909999		-0.00000498		 0.00000002		 0.00005803
Si		2.08657689		1.14010478		3.31672967		-0.00007451		-0.00000002		-0.00014625
Si		5.64687206		3.42031285		5.32441038		 0.00007924		 0.00000002		 0.00014034
Si		1.78014461		3.42031285		7.63731495		 0.00008205		 0.00000001		-0.00013806
Si		5.95330285		1.14010478		1.00385189		-0.00007706		-0.00000003		 0.00014396
Mg		1.09248461		1.14010404		0.52808924		 0.00005886		 0.00000001		 0.00014398
Mg		6.64096731		3.42031285		8.11306569		-0.00005989		-0.00000001		-0.00017038
Mg		2.77425102		3.42031285		4.84867155		-0.00005905		-0.00000000		 0.00016837
Mg		4.95920090		1.14010404		3.79248115		 0.00005858		0.00000000		-0.00014217
