# total energy = -11145.7155315 eV

CRYSTAL
PRIMVEC
		6.99518718		0.00000000		0.00000000
		0.00000000		4.25646023		0.00000000
		0.00000000		0.00000000		7.77292792
PRIMECORD
   12 1
Ca		0.10526038		1.06411431		5.34666344		 0.00005910		 0.00000002		-0.00020286
Ca		6.88992903		3.19234369		2.42623993		-0.00005880		-0.00000000		 0.00021035
Ca		3.39233395		3.19234369		1.46022552		-0.00005823		-0.00000001		-0.00021074
Ca		3.60285844		1.06411431		6.31272695		 0.00005788		 0.00000002		 0.00020166
Si		1.87939787		1.06411431		3.02856802		 0.00025766		-0.00000001		 0.00058131
Si		5.11579526		3.19234369		4.74435692		-0.00025812		0.00000000		-0.00058493
Si		1.61821729		3.19234369		6.91503049		-0.00027058		0.00000000		 0.00058500
Si		5.37697658		1.06411431		0.85789668		 0.00027020		-0.00000000		-0.00058134
Mg		1.05976058		1.06411431		0.53016379		-0.00028260		-0.00000001		-0.00047826
Mg		5.93541915		3.19234369		7.24275966		 0.00028471		-0.00000001		 0.00045188
Mg		2.43779580		3.19234369		4.41662924		 0.00027682		-0.00000001		-0.00045364
Mg		4.55738394		1.06411431		3.35629719		-0.00027804		-0.00000000		 0.00048156
