# total energy = -11146.6160554 eV

CRYSTAL
PRIMVEC
		7.53968978		0.00000000		0.00000000
		0.00000000		4.48056826		0.00000000
		0.00000000		0.00000000		8.38745033
PRIMECORD
   12 1
Ca		0.14752452		1.12014207		5.70853637		 0.00034380		-0.00000000		-0.00040463
Ca		7.39216675		3.36042397		2.67890056		-0.00034322		 0.00000009		 0.00041188
Ca		3.62232186		3.36042397		1.51481865		-0.00034456		-0.00000002		-0.00040783
Ca		3.91737015		1.12014207		6.87263763		 0.00034457		-0.00000001		 0.00040160
Si		2.03449807		1.12014132		3.22827255		-0.00023642		 0.00000004		-0.00026116
Si		5.50519542		3.36042471		5.15916140		 0.00023678		-0.00000005		 0.00026401
Si		1.73533491		3.36042471		7.42200665		 0.00023836		-0.00000004		-0.00026385
Si		5.80435784		1.12014132		0.96545633		-0.00023804		 0.00000004		 0.00026032
Mg		1.08830128		1.12014132		0.53535836		-0.00010379		0.00000000		-0.00046035
Mg		6.45139370		3.36042471		7.85208974		 0.00010305		-0.00000002		 0.00045798
Mg		2.68153988		3.36042471		4.72908054		 0.00009951		-0.00000003		-0.00045873
Mg		4.85815361		1.12014132		3.65836904		-0.00010004		 0.00000001		 0.00046075
