# total energy = -11144.3828648 eV

CRYSTAL
PRIMVEC
		8.06059697		0.00000000		-0.00000744
		0.00000000		4.70567339		0.00000000
		-0.00000744		0.00000000		9.15865043
PRIMECORD
   12 1
Ca		0.20222554		1.17641835		6.20087979		-0.00054568		 0.00000002		-0.00012670
Ca		7.85837589		3.52925579		2.95776096		 0.00054521		0.00000000		 0.00012428
Ca		3.82807815		3.52925579		1.62155012		 0.00054678		-0.00000001		-0.00013119
Ca		4.23252402		1.17641835		7.53709510		-0.00054759		 0.00000002		 0.00013460
Si		2.19137295		1.17641909		3.55527027		-0.00028701		-0.00000001		-0.00005850
Si		5.86922550		3.52925579		5.60340620		 0.00028715		-0.00000001		 0.00005688
Si		1.83893000		3.52925579		8.13456348		 0.00028684		 0.00000001		-0.00005722
Si		6.22166846		1.17641909		1.02404676		-0.00028673		-0.00000001		 0.00005831
Mg		1.08691949		1.17641835		0.49859610		 0.00010982		-0.00000000		-0.00006997
Mg		6.97365664		3.52925579		8.65999852		-0.00010902		-0.00000001		 0.00007104
Mg		2.94339313		3.52925579		5.07796819		-0.00010683		-0.00000000		-0.00007027
Mg		5.11718226		1.17641835		4.08072391		 0.00010704		0.00000000		 0.00006874
