# total energy = -12346.0904481 eV

CRYSTAL
PRIMVEC
		2.70819979		0.00000000		0.00000000
		0.00000000		8.05299999		0.00000000
		0.00000000		0.00000000		6.10800069
PRIMECORD
   20 1
O		0.00000000		0.58786893		1.52699977		0.00000000		-0.00048228		-0.00000520
O		0.00000000		7.46513051		4.58099957		0.00000000		 0.00048228		 0.00000520
O		1.35409990		4.61436865		1.52699977		-0.00000000		-0.00048221		-0.00000559
O		1.35409990		3.43863079		4.58099957		-0.00000000		 0.00048221		 0.00000559
O		0.00000000		2.92323871		2.69362778		0.00000000		-0.00004283		-0.00022148
O		0.00000000		5.12976074		3.41437182		0.00000000		 0.00004283		 0.00022148
O		0.00000000		5.12976074		5.74762758		0.00000000		 0.00004180		-0.00021673
O		0.00000000		2.92323871		0.36037202		0.00000000		-0.00004180		 0.00021673
O		1.35409990		6.94973951		2.69362778		0.00000000		-0.00004275		-0.00022137
O		1.35409990		1.10326101		3.41437182		0.00000000		 0.00004275		 0.00022137
O		1.35409990		1.10326101		5.74762758		0.00000000		 0.00004187		-0.00021675
O		1.35409990		6.94973951		0.36037202		0.00000000		-0.00004187		 0.00021675
Si		0.00000000		0.00000000		0.00000000		0.00000000		0.00000000		0.00000000
Si		0.00000000		0.00000000		3.05399980		0.00000000		0.00000000		0.00000000
Si		1.35409990		4.02649972		0.00000000		0.00000000		0.00000000		0.00000000
Si		1.35409990		4.02649972		3.05399980		0.00000000		0.00000000		0.00000000
Mg		0.00000000		2.03740876		4.58099957		0.00000000		 0.00002401		-0.00000529
Mg		0.00000000		6.01559041		1.52699977		0.00000000		-0.00002401		 0.00000529
Mg		1.35409990		6.06390957		4.58099957		0.00000000		 0.00002401		-0.00000529
Mg		1.35409990		1.98909096		1.52699977		0.00000000		-0.00002401		 0.00000529
