# total energy = -12334.5773045 eV

CRYSTAL
PRIMVEC
		2.33889972		0.00000000		0.00000000
		0.00000000		8.05300015		0.00000000
		0.00000000		0.00000000		6.10799920
PRIMECORD
   20 1
O		0.00000000		0.58786888		1.52699980		0.00000000		-0.00072215		 0.00000135
O		0.00000000		7.46513010		4.58099940		0.00000000		 0.00072215		-0.00000135
O		1.16944986		4.61436848		1.52699980		0.00000000		-0.00072190		 0.00000206
O		1.16944986		3.43863049		4.58099940		0.00000000		 0.00072190		-0.00000206
O		0.00000000		2.92323873		2.69362778		0.00000000		-0.00014181		 0.00008529
O		0.00000000		5.12976048		3.41437166		0.00000000		 0.00014181		-0.00008529
O		0.00000000		5.12976048		5.74762738		0.00000000		 0.00013865		 0.00006820
O		0.00000000		2.92323873		0.36037206		0.00000000		-0.00013865		-0.00006820
O		1.16944986		6.94973928		2.69362778		0.00000000		-0.00014241		 0.00008474
O		1.16944986		1.10326087		3.41437166		0.00000000		 0.00014241		-0.00008474
O		1.16944986		1.10326087		5.74762738		0.00000000		 0.00013901		 0.00006786
O		1.16944986		6.94973928		0.36037206		0.00000000		-0.00013901		-0.00006786
Si		0.00000000		0.00000000		0.00000000		0.00000000		0.00000000		0.00000000
Si		0.00000000		0.00000000		3.05399960		0.00000000		0.00000000		0.00000000
Si		1.16944986		4.02649961		0.00000000		0.00000000		0.00000000		0.00000000
Si		1.16944986		4.02649961		3.05399960		0.00000000		0.00000000		0.00000000
Mg		0.00000000		2.03740877		4.58099940		0.00000000		 0.00038762		 0.00002050
Mg		0.00000000		6.01559021		1.52699980		0.00000000		-0.00038762		-0.00002050
Mg		1.16944986		6.06390931		4.58099940		0.00000000		 0.00038817		 0.00002076
Mg		1.16944986		1.98909084		1.52699980		0.00000000		-0.00038817		-0.00002076
