# total energy = -41256.122833 eV	

CRYSTAL	
PRIMVEC	
		5.69780212		0.00000000		0.91165088	
		0.00000000		11.46200276		0.00000000	
		1.32113816		0.00000000		8.25710194	
PRIMCOORD
   56 1	
Mg		0.00000000		0.00000000		0.00000000		0.00000000		0.00000000		0.00000000	
Mg		0.00000000		5.73100022		0.00000000		0.00000000		0.00000000		0.00000000	
Mg		3.50946783		5.73100022		4.58437410		0.00000000		0.00000000		0.00000000	
Mg		3.50946783		0.00000000		4.58437410		0.00000000		0.00000000		0.00000000	
Mg		1.28123789		2.86549982		8.00773622		-0.00093409		0.00000000		 0.00041256	
Mg		0.03989796		8.59650005		0.24936399		 0.00093409		-0.00000000		-0.00041256	
Mg		3.46956987		8.59650005		4.33501011		-0.00093409		-0.00000000		 0.00041255	
Mg		3.54936579		2.86549982		4.83373925		 0.00093409		0.00000000		-0.00041255	
Mg		1.75473421		1.45452778		2.29218705		-0.00000000		 0.00049660		0.00000000	
Mg		5.26420204		10.00747209		6.87656115		0.00000000		-0.00049660		-0.00000000	
Mg		4.60363411		4.27647187		2.74801076		-0.00000000		-0.00025056		-0.00000000	
Mg		2.41530213		7.18552800		6.42073687		0.00000000		 0.00025056		0.00000000	
Mg		5.26420204		7.18552800		6.87656115		0.00000000		 0.00049660		-0.00000000	
Mg		1.75473421		4.27647187		2.29218705		-0.00000000		-0.00049660		0.00000000	
Mg		2.41530213		10.00747209		6.42073687		 0.00000001		-0.00025056		-0.00000000	
Mg		4.60363411		1.45452778		2.74801076		-0.00000001		 0.00025056		0.00000000	
Si		0.81448009		1.37429389		5.09050188		-0.00027051		 0.00027946		-0.00063180	
Si		0.50665576		10.08770598		3.16659776		 0.00027051		-0.00027946		 0.00063180	
Si		0.81448009		4.35670575		5.09050188		-0.00027052		-0.00027945		-0.00063180	
Si		0.50665576		7.10529412		3.16659776		 0.00027052		 0.00027945		 0.00063180	
Si		3.00281208		7.10529412		1.41777577		-0.00027052		 0.00027946		-0.00063180	
Si		4.01612417		4.35670575		7.75097186		 0.00027052		-0.00027946		 0.00063180	
Si		3.00281208		10.08770598		1.41777577		-0.00027052		-0.00027946		-0.00063180	
Si		4.01612417		1.37429389		7.75097186		 0.00027052		 0.00027946		 0.00063180	
O		0.28827177		2.86549982		1.80169902		 0.00076638		-0.00000000		-0.00004239	
O		1.03286408		8.59650005		6.45540119		-0.00076638		0.00000000		 0.00004239	
O		3.79774018		8.59650005		6.38607312		 0.00076638		-0.00000000		-0.00004239	
O		3.22119606		2.86549982		2.78267509		-0.00076638		0.00000000		 0.00004239	
O		0.94553680		2.86549982		5.90960627		 0.00056508		0.00000000		-0.00088101	
O		0.37559905		8.59650005		2.34749394		-0.00056508		-0.00000000		 0.00088101	
O		3.13386878		8.59650005		2.23688016		 0.00056508		-0.00000000		-0.00088101	
O		3.88506689		2.86549982		6.93186805		-0.00056508		0.00000000		 0.00088101	
O		0.33887128		11.34508726		2.11794622		 0.00000707		-0.00070668		-0.00013353	
O		0.98226515		0.11691319		6.13915399		-0.00000707		 0.00070668		 0.00013353	
O		0.33887128		5.84791284		2.11794622		 0.00000707		 0.00070668		-0.00013353	
O		0.98226515		5.61408703		6.13915399		-0.00000707		-0.00070668		 0.00013353	
O		3.84833911		5.61408703		6.70231974		 0.00000707		-0.00070668		-0.00013353	
O		3.17059713		5.84791284		2.46642788		-0.00000707		 0.00070668		 0.00013353	
O		3.84833911		0.11691319		6.70231974		 0.00000707		 0.00070668		-0.00013353	
O		3.17059713		11.34508726		2.46642788		-0.00000707		-0.00070668		 0.00013353	
O		2.79401828		1.40524101		8.43724576		 0.00010468		 0.00058253		-0.00041415	
O		4.22491796		10.05675828		0.73150187		-0.00010468		-0.00058253		 0.00041415	
O		5.52782206		4.32575921		8.87465423		-0.00057629		 0.00027832		 0.00055409	
O		1.49111418		7.13624124		0.29409398		 0.00057629		-0.00027832		-0.00055409	
O		4.22491796		7.13624124		0.73150187		-0.00010468		 0.00058253		 0.00041415	
O		2.79401828		4.32575921		8.43724576		 0.00010468		-0.00058253		-0.00041415	
O		1.49111418		10.05675828		0.29409398		 0.00057629		 0.00027832		-0.00055409	
O		5.52782206		1.40524101		8.87465423		-0.00057629		-0.00027832		 0.00055409	
O		4.98235027		7.13624124		4.76452023		 0.00010468		 0.00058253		-0.00041416	
O		2.03658598		4.32575921		4.40422913		-0.00010468		-0.00058253		 0.00041416	
O		2.01835423		10.05675828		4.29028013		-0.00057629		 0.00027831		 0.00055409	
O		5.00058202		1.40524101		4.87846808		 0.00057629		-0.00027831		-0.00055409	
O		2.03658598		1.40524101		4.40422913		-0.00010469		 0.00058253		 0.00041416	
O		4.98235027		10.05675828		4.76452023		 0.00010469		-0.00058253		-0.00041416	
O		5.00058202		4.32575921		4.87846808		 0.00057629		 0.00027832		-0.00055408	
O		2.01835423		7.13624124		4.29028013		-0.00057629		-0.00027832		 0.00055408	
