# total energy = -20637.0238348 eV	

CRYSTAL	
PRIMVEC	
		10.20140980		0.00000000		0.00000000	
		0.00000000		5.98348390		0.47868075	
		0.00000000		0.38043097		4.75533617	
PRIMCOORD
   28 1	
Mg		0.00000000		0.00000000		0.00000000		0.00000000		0.00000000		0.00000000	
Mg		5.10070490		0.19021447		2.37767013		0.00000000		0.00000000		-0.00000000	
Mg		0.00000000		2.99173991		0.23933936		-0.00000000		-0.00000000		0.00000000	
Mg		5.10070490		3.18195437		2.61700846		0.00000000		0.00000000		-0.00000000	
Mg		2.82885094		1.87306351		4.83458888		-0.00058441		 0.00005701		 0.00063918	
Mg		7.37255886		4.49084422		0.39942906		 0.00058441		-0.00005701		-0.00063918	
Mg		2.27185396		4.67458997		2.69625913		 0.00058441		 0.00005701		 0.00063918	
Mg		7.92955584		1.68931674		2.53775983		-0.00058441		-0.00005701		-0.00063918	
Si		0.95893252		1.65808410		2.14734678		-0.00044371		-0.00045321		-0.00007409	
Si		9.24247830		4.70582261		3.08667219		 0.00044371		 0.00045321		 0.00007409	
Si		4.14177340		4.84003746		4.76435626		 0.00044371		-0.00045321		-0.00007409	
Si		6.05963742		1.52386925		0.46966271		-0.00044371		 0.00045321		 0.00007409	
O		0.93444914		1.78701054		3.75893081		 0.00011899		-0.00039726		-0.00032534	
O		9.26696066		4.57689617		1.47508713		-0.00011899		 0.00039726		 0.00032534	
O		4.16625576		4.58853700		1.62060004		-0.00011899		-0.00039726		-0.00032534	
O		6.03515404		1.77536971		3.61341790		 0.00011899		 0.00039726		 0.00032534	
O		4.55901004		1.57998211		1.17107492		 0.00001752		 0.00056075		-0.00003064	
O		5.64239976		4.78392460		4.06294302		-0.00001752		-0.00056075		 0.00003064	
O		0.54169486		4.76193546		3.78808440		-0.00001752		 0.00056075		-0.00003064	
O		9.65971596		1.60197125		1.44593354		 0.00001752		-0.00056075		 0.00003064	
O		1.65976937		0.30433356		1.33692638		 0.00042028		 0.00009017		-0.00006999	
O		8.54164042		6.05957315		3.89709258		-0.00042028		-0.00009017		 0.00006999	
O		3.44093552		6.08072475		4.16148966		 0.00004528		 0.00044240		-0.00082252	
O		6.76047529		0.28318195		1.07252930		-0.00004528		-0.00044240		 0.00082252	
O		8.54164042		3.46513633		3.68953776		 0.00004528		-0.00044240		 0.00082252	
O		1.65976937		2.89877140		1.54448120		-0.00004528		 0.00044240		-0.00082252	
O		6.76047529		2.87761878		1.28008412		 0.00042028		-0.00009017		 0.00006999	
O		3.44093552		3.48628793		3.95393484		-0.00042028		 0.00009017		-0.00006999	
