# total energy = -20632.0253669 eV	

CRYSTAL	
PRIMVEC	
		10.20140980		0.00000000		0.00000000	
		0.00000000		5.98348390		-0.95736150	
		0.00000000		-0.76085175		4.75533617	
PRIMCOORD
   28 1	
Mg		0.00000000		0.00000000		0.00000000		-0.00000000		0.00000000		0.00000000	
Mg		5.10070490		-0.38042689		2.37767013		0.00000000		0.00000000		0.00000000	
Mg		0.00000000		2.99173991		-0.47867769		0.00000000		0.00000000		0.00000000	
Mg		5.10070490		2.61131301		1.89899243		-0.00000000		-0.00000000		-0.00000000	
Mg		2.82885094		0.74148335		4.47558087		-0.00045706		 0.00024767		-0.00072813	
Mg		7.37255886		4.48114268		-0.67759702		 0.00045706		-0.00024767		 0.00072813	
Mg		2.27185396		4.11365015		1.61923203		 0.00045706		 0.00024767		-0.00072813	
Mg		7.92955584		1.10897588		2.17875080		-0.00045706		-0.00024767		 0.00072813	
Si		0.95893252		1.17144217		1.78833774		-0.00078946		-0.00023463		 0.00007655	
Si		9.24247830		4.05118386		2.00964509		 0.00078946		 0.00023463		-0.00007655	
Si		4.14177340		3.78275416		3.68732916		 0.00078946		-0.00023463		 0.00007655	
Si		6.05963742		1.43987084		0.11065367		-0.00078946		 0.00023463		-0.00007655	
O		0.93444914		0.91358827		3.39992178		-0.00038108		 0.00073010		 0.00016252	
O		9.26696066		4.30903673		0.39806105		 0.00038108		-0.00073010		-0.00016252	
O		4.16625576		4.28575508		0.54357396		 0.00038108		 0.00073010		 0.00016252	
O		6.03515404		0.93686993		3.25440887		-0.00038108		-0.00073010		-0.00016252	
O		4.55901004		1.32764514		0.81206690		-0.00008743		-0.00042529		 0.00009133	
O		5.64239976		3.89497987		2.98591694		 0.00008743		 0.00042529		-0.00009133	
O		0.54169486		3.93895815		2.71105832		 0.00008743		-0.00042529		 0.00009133	
O		9.65971596		1.28366788		1.08692451		-0.00008743		 0.00042529		-0.00009133	
O		1.65976937		-0.01271402		1.28924907		-0.00025505		-0.00077614		-0.00032716	
O		8.54164042		5.23533902		2.50873376		 0.00025505		 0.00077614		 0.00032716	
O		3.44093552		5.19303582		2.77313084		 0.00041527		-0.00047764		-0.00022696	
O		6.76047529		0.02959021		1.02485199		-0.00041527		 0.00047764		 0.00022696	
O		8.54164042		2.64090322		2.92384442		 0.00041527		 0.00047764		 0.00022696	
O		1.65976937		2.58172280		0.87413942		-0.00041527		-0.00047764		-0.00022696	
O		6.76047529		2.62402703		0.60974234		-0.00025505		 0.00077614		 0.00032716	
O		3.44093552		2.59859900		3.18824048		 0.00025505		-0.00077614		-0.00032716	
