# total energy = -20634.8459452 eV	

CRYSTAL	
PRIMVEC	
		10.20140980		0.00000000		0.00000000	
		0.00000000		5.98348390		0.71801603	
		0.00000000		0.57063626		4.75533617	
PRIMCOORD
   28 1	
Mg		0.00000000		0.00000000		0.00000000		0.00000000		0.00000000		-0.00000000	
Mg		5.10070490		0.28532017		2.37767013		0.00000000		0.00000000		-0.00000000	
Mg		0.00000000		2.99173991		0.35900903		0.00000000		0.00000000		-0.00000000	
Mg		5.10070490		3.27706008		2.73667916		0.00000000		-0.00000000		0.00000000	
Mg		2.82885094		2.06166003		4.89442423		-0.00000390		-0.00007842		-0.00009119	
Mg		7.37255886		4.49246012		0.57893307		 0.00000390		 0.00007842		 0.00009119	
Mg		2.27185396		4.76807977		2.87576314		 0.00000390		-0.00007842		-0.00009119	
Mg		7.92955584		1.78604140		2.59759518		-0.00000390		 0.00007842		 0.00009119	
Si		0.95893252		1.73919143		2.20718110		 0.00035726		 0.00044594		 0.00023743	
Si		9.24247830		4.81492975		3.26617619		-0.00035726		-0.00044594		-0.00023743	
Si		4.14177340		5.01625151		4.94386026		-0.00035726		 0.00044594		 0.00023743	
Si		6.05963742		1.53786865		0.52949703		 0.00035726		-0.00044594		-0.00023743	
O		0.93444914		1.93258058		3.81876616		-0.00000433		 0.00047443		 0.00018220	
O		9.26696066		4.62153856		1.65459216		 0.00000433		-0.00047443		-0.00018220	
O		4.16625576		4.63900133		1.80010507		 0.00000433		 0.00047443		 0.00018220	
O		6.03515404		1.91511984		3.67325325		-0.00000433		-0.00047443		-0.00018220	
O		4.55901004		1.62203946		1.23091027		-0.00012900		-0.00044674		 0.00037634	
O		5.64239976		4.93208172		4.24244805		 0.00012900		 0.00044674		-0.00037634	
O		0.54169486		4.89909852		3.96758943		 0.00012900		-0.00044674		 0.00037634	
O		9.65971596		1.65502164		1.50576889		-0.00012900		 0.00044674		-0.00037634	
O		1.65976937		0.35717584		1.34487226		 0.00013626		-0.00019068		 0.00045695	
O		8.54164042		6.19694534		4.12848606		-0.00013626		 0.00019068		-0.00045695	
O		3.44093552		6.22867274		4.39288314		 0.00053028		-0.00036767		 0.00093764	
O		6.76047529		0.32544844		1.08047518		-0.00053028		 0.00036767		-0.00093764	
O		8.54164042		3.60250749		3.81715434		 0.00053028		 0.00036767		-0.00093764	
O		1.65976937		2.95161164		1.65620398		-0.00053028		-0.00036767		 0.00093764	
O		6.76047529		2.91988526		1.39180690		 0.00013626		 0.00019068		-0.00045695	
O		3.44093552		3.63423592		4.08155040		-0.00013626		-0.00019068		 0.00045695	
