# total energy = -22469.6813411 eV	

CRYSTAL	
PRIMVEC	
		9.73970004		0.00000000		0.00000000	
		0.00000000		9.36327038		0.00000000	
		-1.43536881		0.00000000		5.05028771	
PRIMCOORD
   40 1	
Mg		-0.35884269		8.50259841		1.26257095		 0.00000003		 0.00001088		 0.00000001	
Mg		-1.07652807		0.86067197		3.78771188		-0.00000003		-0.00001088		-0.00000001	
Mg		4.51100733		3.82096322		1.26257095		 0.00000001		 0.00001125		 0.00000002	
Mg		3.79332195		5.54230716		3.78771188		-0.00000001		-0.00001125		-0.00000002	
Ca		-0.35884269		2.82283876		1.26257095		-0.00000001		-0.00040119		-0.00000004	
Ca		-1.07652807		6.54043162		3.78771188		 0.00000001		 0.00040119		 0.00000004	
Ca		4.51100733		7.50447395		1.26257095		 0.00000004		-0.00040156		-0.00000002	
Ca		3.79332195		1.85879643		3.78771188		-0.00000004		 0.00040156		 0.00000002	
Si		2.45818828		0.87256317		1.15833279		 0.00032877		-0.00049595		 0.00020974	
Si		5.84614100		8.49070721		3.89195005		-0.00032877		 0.00049595		-0.00020974	
Si		6.56382638		0.87256317		1.36680912		-0.00032896		-0.00049580		-0.00020984	
Si		1.74050290		8.49070721		3.68347372		 0.00032896		 0.00049580		 0.00020984	
Si		7.32803928		5.55419836		1.15833279		 0.00032299		-0.00049914		 0.00020747	
Si		0.97629098		3.80907202		3.89195005		-0.00032299		 0.00049914		-0.00020747	
Si		1.69397636		5.55419836		1.36680912		-0.00032318		-0.00049892		-0.00020759	
Si		6.61035293		3.80907202		3.68347372		 0.00032318		 0.00049892		 0.00020759	
O		0.92170288		0.81366818		0.71643286		 0.00054946		 0.00013238		 0.00044343	
O		7.38262640		8.54960220		4.33384998		-0.00054946		-0.00013238		-0.00044343	
O		8.10031081		0.81366818		1.80870807		-0.00054929		 0.00013238		-0.00044341	
O		0.20401847		8.54960220		3.24157476		 0.00054929		-0.00013238		 0.00044341	
O		5.79155387		5.49530337		0.71643286		 0.00055320		 0.00013278		 0.00044467	
O		2.51277638		3.86796701		4.33384998		-0.00055320		-0.00013278		-0.00044467	
O		3.23046079		5.49530337		1.80870807		-0.00055296		 0.00013272		-0.00044463	
O		5.07386849		3.86796701		3.24157476		 0.00055296		-0.00013272		 0.00044463	
O		3.05934400		2.34259655		1.60477824		-0.00028147		 0.00051700		-0.00007013	
O		5.24498528		7.02067383		3.44550460		 0.00028147		-0.00051700		 0.00007013	
O		5.96267066		2.34259655		0.92036367		 0.00028159		 0.00051680		 0.00007015	
O		2.34165764		7.02067383		4.12991917		-0.00028159		-0.00051680		-0.00007015	
O		7.92919402		7.02423174		1.60477824		-0.00027959		 0.00052016		-0.00006915	
O		0.37513526		2.33903864		3.44550460		 0.00027959		-0.00052016		 0.00006915	
O		1.09282064		7.02423174		0.92036367		 0.00027958		 0.00052010		 0.00006919	
O		7.21150767		2.33903864		4.12991917		-0.00027958		-0.00052010		-0.00006919	
O		1.98719392		0.16329484		5.02720267		 0.00045118		-0.00006156		 0.00036917	
O		6.31713633		9.19997457		0.02308017		-0.00045118		 0.00006156		-0.00036917	
O		5.59944998		0.16329484		2.54822110		-0.00045118		-0.00006163		-0.00036913	
O		2.70487930		9.19997457		2.50206174		 0.00045118		 0.00006163		 0.00036913	
O		6.85704394		4.84493100		5.02720267		 0.00045179		-0.00006144		 0.00036938	
O		1.44728534		4.51834035		0.02308017		-0.00045179		 0.00006144		-0.00036938	
O		0.72959996		4.84493100		2.54822110		-0.00045183		-0.00006152		-0.00036937	
O		7.57472933		4.51834035		2.50206174		 0.00045183		 0.00006152		 0.00036937	
