# total energy = -8278.139482 eV	

CRYSTAL	
PRIMVEC	
		3.78989990		0.00000000		0.00000000	
		0.00000000		4.21099947		0.00000000	
		0.00000000		0.00000000		4.21099947	
PRIMCOORD
   8 1	
Mg		0.00000000		0.00000000		0.00000000		0.00000000		0.00000000		0.00000000	
Mg		0.00000000		2.10550011		2.10550011		0.00000000		0.00000000		0.00000000	
Mg		1.89494995		0.00000000		2.10550011		0.00000000		0.00000000		0.00000000	
Mg		1.89494995		2.10550011		0.00000000		0.00000000		0.00000000		0.00000000	
O		1.89494995		2.10550011		2.10550011		0.00000000		0.00000000		0.00000000	
O		1.89494995		0.00000000		0.00000000		0.00000000		0.00000000		0.00000000	
O		0.00000000		2.10550011		0.00000000		0.00000000		0.00000000		0.00000000	
O		0.00000000		0.00000000		2.10550011		0.00000000		0.00000000		0.00000000	
