# total energy = -24715.8422366 eV

CRYSTAL
PRIMVEC
		9.53870002		0.00000000		0.00000000
		0.00000000		8.66009990		0.00000000
		-1.68714803		0.00000000		5.10879419
PRIMECORD
   40 1
Mg		-0.42178796		7.83046288		1.27719855		 0.00000003		 0.00060106		-0.00000004
Mg		-1.26536388		0.82963702		3.83159660		-0.00000003		-0.00060106		 0.00000004
Mg		4.34756205		3.50041293		1.27719855		 0.00000006		 0.00061503		-0.00000006
Mg		3.50398613		5.15968697		3.83159660		-0.00000006		-0.00061503		 0.00000006
Mg		-0.42178796		2.47332482		1.27719855		-0.00000004		-0.00026056		-0.00000011
Mg		-1.26536388		6.18677508		3.83159660		 0.00000004		 0.00026056		 0.00000011
Mg		4.34756205		6.80337477		1.27719855		-0.00000004		-0.00027594		-0.00000010
Mg		3.50398613		1.85672513		3.83159660		 0.00000004		 0.00027594		 0.00000010
Si		2.37296148		0.79655585		1.25523092		 0.00058278		-0.00020977		 0.00000441
Si		5.47858670		7.86354405		3.85356518		-0.00058278		 0.00020977		-0.00000441
Si		6.32216262		0.79655585		1.29916713		-0.00058356		-0.00020870		-0.00000519
Si		1.52938461		7.86354405		3.80962897		 0.00058356		 0.00020870		 0.00000519
Si		7.14231149		5.12660581		1.25523092		 0.00042751		-0.00032432		-0.00007881
Si		0.70923669		3.53349410		3.85356518		-0.00042751		 0.00032432		 0.00007881
Si		1.55281261		5.12660581		1.29916713		-0.00042858		-0.00032294		 0.00007782
Si		6.29873462		3.53349410		3.80962897		 0.00042858		 0.00032294		-0.00007782
O		0.84504584		0.71705556		0.70501390		-0.00019541		-0.00004624		-0.00021983
O		7.00650234		7.94304339		4.40378219		 0.00019541		 0.00004624		 0.00021983
O		7.85007827		0.71705556		1.84938415		 0.00019599		-0.00004633		 0.00022018
O		0.00146991		7.94304339		3.25941195		-0.00019599		 0.00004633		-0.00022018
O		5.61439585		5.04710742		0.70501390		-0.00009596		-0.00003698		-0.00018071
O		2.23715233		3.61299439		4.40378219		 0.00009596		 0.00003698		 0.00018071
O		3.08072825		5.04710742		1.84938415		 0.00009667		-0.00003706		 0.00018108
O		4.77081993		3.61299439		3.25941195		-0.00009667		 0.00003706		-0.00018108
O		2.93192644		2.23170764		1.62408577		-0.00042497		-0.00027208		-0.00003761
O		4.91962174		6.42839321		3.48471032		 0.00042497		 0.00027208		 0.00003761
O		5.76319766		2.23170764		0.93031227		 0.00042532		-0.00027294		 0.00003795
O		2.08834861		6.42839321		4.17848382		-0.00042532		 0.00027294		-0.00003795
O		7.70127645		6.56175664		1.62408577		-0.00036010		-0.00015661		-0.00000460
O		0.15027173		2.09834231		3.48471032		 0.00036010		 0.00015661		 0.00000460
O		0.99384765		6.56175664		0.93031227		 0.00036060		-0.00015780		 0.00000502
O		6.85769958		2.09834231		4.17848382		-0.00036060		 0.00015780		-0.00000502
O		3.33603347		0.05629073		0.13180671		-0.00014802		-0.00056596		 0.00020473
O		4.51551471		8.60380917		4.97698939		 0.00014802		 0.00056596		-0.00020473
O		5.35909063		0.05629073		2.42259134		 0.00014790		-0.00056617		-0.00020458
O		2.49245659		8.60380917		2.68620476		-0.00014790		 0.00056617		 0.00020458
O		8.10538348		4.38634068		0.13180671		-0.00012910		-0.00055989		 0.00022172
O		-0.25383530		4.27375922		4.97698939		 0.00012910		 0.00055989		-0.00022172
O		0.58974062		4.38634068		2.42259134		 0.00012896		-0.00056008		-0.00022153
O		7.26180660		4.27375922		2.68620476		-0.00012896		 0.00056008		 0.00022153
