# total energy = -24713.7371073 eV

CRYSTAL
PRIMVEC
		9.53870002		0.00000000		0.00000000
		0.00000000		8.66009990		0.00000000
		-1.68714803		0.00000000		5.48260631
PRIMECORD
   40 1
Mg		-0.42178796		7.83046288		1.37065301		-0.00000254		-0.00026059		 0.00000479
Mg		-1.26536388		0.82963702		4.11195807		 0.00000254		 0.00026059		-0.00000479
Mg		4.34756205		3.50041293		1.37065301		-0.00000256		-0.00026285		 0.00000479
Mg		3.50398613		5.15968697		4.11195807		 0.00000256		 0.00026285		-0.00000479
Mg		-0.42178796		2.47332482		1.37065301		 0.00000165		-0.00022796		 0.00000846
Mg		-1.26536388		6.18677508		4.11195807		-0.00000165		 0.00022796		-0.00000846
Mg		4.34756205		6.80337477		1.37065301		 0.00000159		-0.00022501		 0.00000846
Mg		3.50398613		1.85672513		4.11195807		-0.00000159		 0.00022501		-0.00000846
Si		2.37296148		0.79655585		1.34707716		-0.00019649		 0.00033293		 0.00000005
Si		5.47858670		7.86354405		4.13553296		 0.00019649		-0.00033293		-0.00000005
Si		6.32216262		0.79655585		1.39422790		 0.00028438		 0.00024053		 0.00006961
Si		1.52938461		7.86354405		4.08838317		-0.00028438		-0.00024053		-0.00006961
Si		7.14231149		5.12660581		1.34707716		-0.00015117		 0.00036544		 0.00002593
Si		0.70923669		3.53349410		4.13553296		 0.00015117		-0.00036544		-0.00002593
Si		1.55281261		5.12660581		1.39422790		 0.00023946		 0.00027290		 0.00004394
Si		6.29873462		3.53349410		4.08838317		-0.00023946		-0.00027290		-0.00004394
O		0.84504584		0.71705556		0.75660015		-0.00031471		-0.00015775		-0.00015461
O		7.00650234		7.94304339		4.72600997		 0.00031471		 0.00015775		 0.00015461
O		7.85007827		0.71705556		1.98470491		 0.00026267		-0.00015298		 0.00012652
O		0.00146991		7.94304339		3.49790521		-0.00026267		 0.00015298		-0.00012652
O		5.61439585		5.04710742		0.75660015		-0.00034139		-0.00016163		-0.00016497
O		2.23715233		3.61299439		4.72600997		 0.00034139		 0.00016163		 0.00016497
O		3.08072825		5.04710742		1.98470491		 0.00028920		-0.00015680		 0.00013684
O		4.77081993		3.61299439		3.49790521		-0.00028920		 0.00015680		-0.00013684
O		2.93192644		2.23170764		1.74292176		 0.00017629		 0.00007158		 0.00002191
O		4.91962174		6.42839321		3.73968931		-0.00017629		-0.00007158		-0.00002191
O		5.76319766		2.23170764		0.99838330		-0.00021721		 0.00015637		-0.00004734
O		2.08834861		6.42839321		4.48422682		 0.00021721		-0.00015637		 0.00004734
O		7.70127645		6.56175664		1.74292176		 0.00015889		 0.00004199		 0.00001367
O		0.15027173		2.09834231		3.73968931		-0.00015889		-0.00004199		-0.00001367
O		0.99384765		6.56175664		0.99838330		-0.00019990		 0.00012679		-0.00003917
O		6.85769958		2.09834231		4.48422682		 0.00019990		-0.00012679		 0.00003917
O		3.33603347		0.05629073		0.14145129		 0.00015440		-0.00004913		 0.00007544
O		4.51551471		8.60380917		5.34115883		-0.00015440		 0.00004913		-0.00007544
O		5.35909063		0.05629073		2.59985377		-0.00014779		-0.00004049		-0.00008052
O		2.49245659		8.60380917		2.88275635		 0.00014779		 0.00004049		 0.00008052
O		8.10538348		4.38634068		0.14145129		 0.00014987		-0.00004779		 0.00007110
O		-0.25383530		4.27375922		5.34115883		-0.00014987		 0.00004779		-0.00007110
O		0.58974062		4.38634068		2.59985377		-0.00014328		-0.00003906		-0.00007603
O		7.26180660		4.27375922		2.88275635		 0.00014328		 0.00003906		 0.00007603
