# total energy = -24716.1360044 eV

CRYSTAL
PRIMVEC
		9.66105003		0.00000000		0.00000000
		0.00000000		8.62099935		0.00000000
		-1.02742369		0.00000000		4.80947358
PRIMECORD
   40 1
Si		2.66972973		0.78882184		1.01575990		 0.00044344		 0.00009896		 0.00019430
Si		5.96389660		7.83217944		3.79370982		-0.00044344		-0.00009896		-0.00019430
Si		6.47760941		0.78882184		1.38897496		-0.00044319		 0.00009868		-0.00019410
Si		2.15601886		7.83217944		3.42049476		 0.00044319		-0.00009868		 0.00019410
Si		7.50025475		5.09932248		1.01575990		 0.00044402		 0.00009927		 0.00019457
Si		1.13337159		3.52167880		3.79370982		-0.00044402		-0.00009927		-0.00019457
Si		1.64708440		5.09932248		1.38897496		-0.00044385		 0.00009906		-0.00019443
Si		6.98654387		3.52167880		3.42049476		 0.00044385		-0.00009906		 0.00019443
Mg		-0.25685640		7.80804034		1.20236791		-0.00000002		-0.00081224		0.00000000
Mg		-0.77056728		0.81295997		3.60710277		 0.00000002		 0.00081224		-0.00000000
Mg		4.57366861		3.49753970		1.20236791		-0.00000001		-0.00081230		 0.00000002
Mg		4.05995773		5.12345964		3.60710277		 0.00000001		 0.00081230		-0.00000002
Mg		-0.25685640		2.36387828		1.20236791		 0.00000001		 0.00059165		 0.00000001
Mg		-0.77056728		6.25712203		3.60710277		-0.00000001		-0.00059165		-0.00000001
Mg		4.57366861		6.67437795		1.20236791		-0.00000000		 0.00059174		-0.00000000
Mg		4.05995773		1.94662236		3.60710277		0.00000000		-0.00059174		0.00000000
O		1.03100600		0.78795910		0.66851568		 0.00030119		-0.00050459		 0.00038916
O		7.60262227		7.83304121		4.14095404		-0.00030119		 0.00050459		-0.00038916
O		8.11633314		0.78795910		1.73621918		-0.00030134		-0.00050458		-0.00038926
O		0.51729416		7.83304121		3.07325247		 0.00030134		 0.00050458		 0.00038926
O		5.86153102		5.09845974		0.66851568		 0.00030077		-0.00050459		 0.00038906
O		2.77209629		3.52254057		4.14095404		-0.00030077		 0.00050459		-0.00038906
O		3.28580813		5.09845974		1.73621918		-0.00030088		-0.00050459		-0.00038913
O		5.34782014		3.52254057		3.07325247		 0.00030088		 0.00050459		 0.00038913
O		3.29413499		2.04835032		1.76507577		 0.00016737		 0.00017782		-0.00011996
O		5.33949328		6.57265096		3.04439491		-0.00016737		-0.00017782		 0.00011996
O		5.85320416		2.04835032		0.63966005		-0.00016752		 0.00017803		 0.00011979
O		2.78042411		6.57265096		4.16981063		 0.00016752		-0.00017803		-0.00011979
O		8.12466000		6.35884999		1.76507577		 0.00016720		 0.00017747		-0.00012011
O		0.50896730		2.26215032		3.04439491		-0.00016720		-0.00017747		 0.00012011
O		1.02267915		6.35884999		0.63966005		-0.00016729		 0.00017764		 0.00011999
O		7.61094912		2.26215032		4.16981063		 0.00016729		-0.00017764		-0.00011999
O		2.50890320		0.52846717		4.40066625		-0.00045767		-0.00072716		 0.00033387
O		6.12472410		8.09253315		0.40880540		 0.00045767		 0.00072716		-0.00033387
O		5.61101323		0.52846717		2.81354026		 0.00045773		-0.00072711		-0.00033389
O		3.02261408		8.09253315		1.99593043		-0.00045773		 0.00072711		 0.00033389
O		7.33942821		4.83896684		4.40066625		-0.00045775		-0.00072719		 0.00033384
O		1.29419909		3.78203347		0.40880540		 0.00045775		 0.00072719		-0.00033384
O		0.78048821		4.83896684		2.81354026		 0.00045779		-0.00072716		-0.00033385
O		7.85314006		3.78203347		1.99593043		-0.00045779		 0.00072716		 0.00033385
