# total energy = -24708.7453304 eV

CRYSTAL
PRIMVEC
		8.28089979		0.00000000		0.00000000
		0.00000000		8.62099635		0.00000000
		-0.88064885		0.00000000		4.80947207
PRIMECORD
   40 1
Si		2.28833971		0.78882195		1.01576001		-0.00027199		 0.00006109		-0.00014389
Si		5.11191206		7.83217854		3.79370958		 0.00027199		-0.00006109		 0.00014389
Si		5.55223566		0.78882195		1.38897520		 0.00027015		 0.00006520		 0.00014094
Si		1.84801611		7.83217854		3.42049522		-0.00027015		-0.00006520		-0.00014094
Si		6.42878961		5.09932178		1.01576001		-0.00062586		-0.00013687		-0.00033000
Si		0.97146217		3.52167871		3.79370958		 0.00062586		 0.00013687		 0.00033000
Si		1.41178576		5.09932178		1.38897520		 0.00059538		-0.00011029		 0.00030258
Si		5.98846601		3.52167871		3.42049522		-0.00059538		 0.00011029		-0.00030258
Mg		-0.22016180		7.80803971		1.20236760		 0.00000006		 0.00017565		 0.00000010
Mg		-0.66048622		0.81295995		3.60710281		-0.00000006		-0.00017565		-0.00000010
Mg		3.92028810		3.49753988		1.20236760		 0.00000033		 0.00019055		 0.00000008
Mg		3.47996367		5.12345978		3.60710281		-0.00000033		-0.00019055		-0.00000008
Mg		-0.22016180		2.36387808		1.20236760		-0.00000013		-0.00012740		-0.00000028
Mg		-0.66048622		6.25712158		3.60710281		 0.00000013		 0.00012740		 0.00000028
Mg		3.92028810		6.67437791		1.20236760		-0.00000023		-0.00014732		-0.00000039
Mg		3.47996367		1.94662175		3.60710281		 0.00000023		 0.00014732		 0.00000039
O		0.88371858		0.78795908		0.66851621		-0.00019814		-0.00002612		-0.00028225
O		6.51653319		7.83304058		4.14095420		 0.00019814		 0.00002612		 0.00028225
O		6.95685679		0.78795908		1.73621900		 0.00020061		-0.00002676		 0.00028361
O		0.44339498		7.83304058		3.07325225		-0.00020061		 0.00002676		-0.00028361
O		5.02417013		5.09845974		0.66851621		 0.00007870		-0.00000823		-0.00021811
O		2.37608329		3.52254075		4.14095420		-0.00007870		 0.00000823		 0.00021811
O		2.81640689		5.09845974		1.73621900		-0.00005227		-0.00000920		 0.00022646
O		4.58384571		3.52254075		3.07325225		 0.00005227		 0.00000920		-0.00022646
O		2.82354420		2.04835012		1.76507628		 0.00004016		-0.00008418		-0.00011688
O		4.57670757		6.57265119		3.04439497		-0.00004016		 0.00008418		 0.00011688
O		5.01703200		2.04835012		0.63965976		-0.00003940		-0.00008752		 0.00011974
O		2.38321977		6.57265119		4.16981066		 0.00003940		 0.00008752		-0.00011974
O		6.96399410		6.35884995		1.76507628		 0.00013503		 0.00012039		-0.00000125
O		0.43625768		2.26214971		3.04439497		-0.00013503		-0.00012039		 0.00000125
O		0.87658210		6.35884995		0.63965976		-0.00012709		 0.00009514		 0.00001808
O		6.52366967		2.26214971		4.16981066		 0.00012709		-0.00009514		-0.00001808
O		2.15048757		0.52846715		4.40066558		-0.00003195		-0.00019774		-0.00003403
O		5.24976420		8.09253251		0.40880484		 0.00003195		 0.00019774		 0.00003403
O		4.80943978		0.52846715		2.81354004		 0.00003147		-0.00019850		 0.00003432
O		2.59081200		8.09253251		1.99592954		-0.00003147		 0.00019850		-0.00003432
O		6.29093747		4.83896698		4.40066558		 0.00000387		-0.00017465		-0.00001712
O		1.10931431		3.78203268		0.40880484		-0.00000387		 0.00017465		 0.00001712
O		0.66898988		4.83896698		2.81354004		-0.00000528		-0.00017646		 0.00001951
O		6.73126189		3.78203268		1.99592954		 0.00000528		 0.00017646		-0.00001951
