# total energy = -7175.08081979 eV	

CRYSTAL	
PRIMVEC	
		3.11200009		0.00000000		0.00000000	
		-1.55600005		2.69506988		0.00000000	
		0.00000000		0.00000000		13.72560090	
PRIMCOORD
   12 1	
O		0.00000000		1.79671419		5.67416330		0.00000000		-0.00000000		 0.00006713	
O		1.55600005		0.89835694		8.05143729		0.00000000		0.00000000		-0.00006713	
O		0.00000000		1.79671419		11.19734449		0.00000000		-0.00000000		 0.00009971	
O		1.55600005		0.89835694		2.52825516		0.00000000		0.00000000		-0.00009971	
O		0.00000000		0.00000000		0.00000000		0.00000000		-0.00000000		0.00000000	
H		0.00000000		1.79671419		4.61042907		0.00000000		-0.00000000		 0.00087539	
H		1.55600005		0.89835694		9.11517120		0.00000000		0.00000000		-0.00087539	
H		0.00000000		1.79671419		10.13223818		0.00000000		0.00000000		 0.00040219	
H		1.55600005		0.89835694		3.59336209		0.00000000		-0.00000000		-0.00040219	
Mg		0.00000000		0.00000000		6.86280014		0.00000000		-0.00000000		0.00000000	
Mg		1.55600005		0.89835694		12.39833441		0.00000000		-0.00000000		-0.00068716	
Mg		0.00000000		1.79671419		1.32726617		0.00000000		0.00000000		 0.00068716	
