# total energy = -24716.658392 eV

CRYSTAL
PRIMVEC
		9.27319965		0.00000000		0.00000000
		0.00000000		8.72660017		0.00000000
		0.00000000		0.00000000		5.32170382
PRIMECORD
   40 1
Mg		0.00000000		7.89582627		1.33042503		0.00000000		 0.00008601		0.00000000
Mg		0.00000000		0.83077205		3.99127508		0.00000000		-0.00008601		-0.00000000
Mg		4.63659983		5.19407213		3.99127508		0.00000000		-0.00008601		0.00000000
Mg		4.63659983		3.53252804		1.33042503		0.00000000		 0.00008601		-0.00000000
Mg		0.00000000		2.30993085		1.33042503		0.00000000		 0.00031060		-0.00000000
Mg		0.00000000		6.41666839		3.99127508		0.00000000		-0.00031060		-0.00000000
Mg		4.63659983		2.05336924		3.99127508		0.00000000		-0.00031060		-0.00000000
Mg		4.63659983		6.67323094		1.33042503		0.00000000		 0.00031060		-0.00000000
Si		2.70591966		0.79935723		0.35442540		 0.00069251		 0.00022383		 0.00008484
Si		6.56727999		7.92724294		4.96727471		-0.00069251		-0.00022383		-0.00008484
Si		1.93068017		3.56394286		3.01527453		-0.00069251		-0.00022383		 0.00008484
Si		7.34251948		5.16265546		2.30642465		 0.00069251		 0.00022383		-0.00008484
Si		6.56727999		0.79935723		2.30642465		-0.00069251		 0.00022383		-0.00008484
Si		2.70591966		7.92724294		3.01527453		 0.00069251		-0.00022383		 0.00008484
Si		7.34251948		3.56394286		4.96727471		 0.00069251		-0.00022383		-0.00008484
Si		1.93068017		5.16265546		0.35442540		-0.00069251		 0.00022383		 0.00008484
O		1.08774632		0.81681032		0.42147898		 0.00079375		 0.00027616		 0.00005064
O		8.18545333		7.90978985		4.90022113		-0.00079375		-0.00027616		-0.00005064
O		3.54885351		3.54648977		3.08232903		-0.00079375		-0.00027616		 0.00005064
O		5.72434614		5.18010855		2.23937107		 0.00079375		 0.00027616		-0.00005064
O		8.18545333		0.81681032		2.23937107		-0.00079375		 0.00027616		-0.00005064
O		1.08774632		7.90978985		3.08232903		 0.00079375		-0.00027616		 0.00005064
O		5.72434614		3.54648977		4.90022113		 0.00079375		-0.00027616		-0.00005064
O		3.54885351		5.18010855		0.42147898		-0.00079375		 0.00027616		 0.00005064
O		3.49321524		2.18688569		0.37251927		-0.00049728		-0.00006759		 0.00012039
O		5.77998442		6.53971355		4.94918084		 0.00049728		 0.00006759		-0.00012039
O		1.14338459		2.17641347		3.03336932		 0.00049728		 0.00006759		 0.00012039
O		8.12981506		6.55018578		2.28833079		-0.00049728		-0.00006759		-0.00012039
O		5.77998442		2.18688569		2.28833079		 0.00049728		-0.00006759		-0.00012039
O		3.49321524		6.53971355		3.03336932		-0.00049728		 0.00006759		 0.00012039
O		8.12981506		2.17641347		4.94918084		-0.00049728		 0.00006759		-0.00012039
O		1.14338459		6.55018578		0.37251927		 0.00049728		-0.00006759		 0.00012039
O		3.24747452		8.50232598		1.53903585		 0.00064220		-0.00020013		 0.00003788
O		6.02572513		0.22427326		3.78266425		-0.00064220		 0.00020013		-0.00003788
O		1.38912531		4.58757242		4.19988591		-0.00064220		 0.00020013		 0.00003788
O		7.88407434		4.13902590		1.12181420		 0.00064220		-0.00020013		-0.00003788
O		6.02572513		8.50232598		1.12181420		-0.00064220		-0.00020013		-0.00003788
O		3.24747452		0.22427326		4.19988591		 0.00064220		 0.00020013		 0.00003788
O		7.88407434		4.58757242		3.78266425		 0.00064220		 0.00020013		-0.00003788
O		1.38912531		4.13902590		1.53903585		-0.00064220		-0.00020013		 0.00003788
