# total energy = -18387.5301927 eV	

CRYSTAL	
PRIMVEC	
		11.10979961		0.00000000		0.00000000	
		0.00000000		6.38940129		0.76673171	
		0.00000000		0.57937605		4.82809672	
PRIMCOORD
   28 1	
Mg		0.00000000		0.00000000		0.00000000		-0.00000000		0.00000000		0.00000000	
Mg		5.55489981		0.28968580		2.41404947		0.00000000		0.00000000		0.00000000	
Mg		0.00000000		3.19469954		0.38336363		0.00000000		0.00000000		0.00000000	
Mg		5.55489981		3.48438534		2.79741421		-0.00000000		0.00000000		-0.00000000	
Ca		3.07563692		2.16365681		4.91090916		 0.00024153		 0.00035415		-0.00047831	
Ca		8.03416380		4.80511498		0.68392038		-0.00024153		-0.00035415		 0.00047831	
Ca		2.47926288		5.06867054		2.88022333		-0.00024153		 0.00035415		-0.00047831	
Ca		8.63053673		1.90010125		2.71460621		 0.00024153		-0.00035415		 0.00047831	
Si		0.90611526		1.83545999		2.17593536		-0.00054075		-0.00094258		 0.00065240	
Si		10.20368436		5.13331180		3.41889418		 0.00054075		 0.00094258		-0.00065240	
Si		4.64878455		5.31984533		4.97334846		 0.00054075		-0.00094258		 0.00065240	
Si		6.46101617		1.64892646		0.62147997		-0.00054075		 0.00094258		-0.00065240	
O		0.86289814		2.02938821		3.79199569		 0.00006865		-0.00082516		 0.00074906	
O		10.24690148		4.93938358		1.80283162		-0.00006865		 0.00082516		-0.00074906	
O		4.69200167		4.93440194		1.76130986		-0.00006865		-0.00082516		 0.00074906	
O		6.41779794		2.03436985		3.83351746		 0.00006865		 0.00082516		-0.00074906	
O		4.98841224		1.73987572		1.37939494		 0.00019551		 0.00000777		-0.00092404	
O		6.12138849		5.22889718		4.21543348		-0.00019551		-0.00000777		 0.00092404	
O		0.56648868		5.22426217		4.17680915		-0.00019551		 0.00000777		-0.00092404	
O		10.54331204		1.74450962		1.41801927		 0.00019551		-0.00000777		 0.00092404	
O		1.63902874		0.45033795		1.35455898		-0.00040434		-0.00009233		 0.00019777	
O		9.47077088		6.51843384		4.24026833		 0.00040434		 0.00009233		-0.00019777	
O		3.91587107		6.54543288		4.46525733		-0.00062676		-0.00003744		-0.00066859	
O		7.19392854		0.42333891		1.12956999		 0.00062676		 0.00003744		 0.00066859	
O		9.47077088		3.90772536		3.92698420		-0.00062676		 0.00003744		 0.00066859	
O		1.63902874		3.06104642		1.66784422		 0.00062676		-0.00003744		-0.00066859	
O		7.19392854		3.03404739		1.44285523		-0.00040434		 0.00009233		-0.00019777	
O		3.91587107		3.93472440		4.15197320		 0.00040434		-0.00009233		 0.00019777	
