# total energy = -22448.8076226 eV	

CRYSTAL	
PRIMVEC	
		9.05300002		0.00000000		0.00000000	
		0.00000000		7.67699834		0.61415552	
		-0.52464851		0.37775453		4.72194523	
PRIMCOORD
   40 1	
Ca		6.64561268		0.55223300		0.46690304		 0.00044868		 0.00080105		 0.00032048	
Ca		1.88274336		7.50252168		4.86920042		-0.00044868		-0.00080105		-0.00032048	
Ca		2.14506490		4.51153902		2.28406014		 0.00034522		 0.00023247		 0.00004192	
Ca		6.38329114		3.54321566		3.05204333		-0.00034522		-0.00023247		-0.00004192	
Mg		1.97928999		1.41210686		2.00467098		 0.00010518		 0.00047977		-0.00004224	
Mg		6.54906696		6.64264872		3.33143158		-0.00010518		-0.00047977		 0.00004224	
Mg		6.81138940		5.13486161		0.86494807		-0.00006354		 0.00053284		-0.00004917	
Mg		1.71696845		2.91989307		4.47115631		 0.00006354		-0.00053284		 0.00004917	
Si		4.38151984		1.44916894		2.28679414		 0.00030891		-0.00023057		 0.00008497	
Si		4.14683711		6.60558574		3.04931023		-0.00030891		 0.00023057		-0.00008497	
Si		4.40915865		5.12697192		0.58515876		-0.00020997		 0.00001362		-0.00024561	
Si		4.11919830		2.92778276		4.75094380		 0.00020997		-0.00001362		 0.00024561	
Si		0.14788438		6.65796187		1.76843656		 0.00012037		-0.00024942		-0.00045451	
Si		8.38047347		1.39679281		3.56766690		-0.00012037		 0.00024942		 0.00045451	
Si		8.64279501		2.80933783		1.33480872		 0.00034815		 0.00008694		 0.00010606	
Si		-0.11443807		5.24541685		4.00129384		-0.00034815		-0.00008694		-0.00010606	
O		3.50493414		1.34236526		0.63708496		-0.00002673		-0.00025866		 0.00048471	
O		5.02342190		6.71239123		4.69901941		 0.00002673		 0.00025866		-0.00048471	
O		5.28574434		5.28444524		2.23892188		-0.00040397		 0.00018293		 0.00049781	
O		3.24261170		2.77031035		3.09718159		 0.00040397		-0.00018293		-0.00049781	
O		3.49747718		3.74113234		0.70137122		 0.00009669		-0.00052581		-0.00047426	
O		5.03087976		4.31362324		4.63473225		-0.00009669		 0.00052581		 0.00047426	
O		5.29320220		7.70376263		2.56008158		 0.00033491		-0.00000532		-0.00000169	
O		3.23515474		0.35099296		2.77602098		-0.00033491		 0.00000532		 0.00000169	
O		5.43097891		2.35186982		1.44224701		 0.00029483		 0.00006252		 0.00064962	
O		3.09737713		5.70288486		3.89385645		-0.00029483		-0.00006252		-0.00064962	
O		3.35969867		6.17730008		1.58594800		 0.00016484		 0.00008664		-0.00035751	
O		5.16865737		1.87745460		3.75015456		-0.00016484		-0.00008664		 0.00035751	
O		1.17630971		2.78113140		1.23965626		 0.00043336		 0.00018327		-0.00002452	
O		7.35204724		5.27362509		4.09644720		-0.00043336		-0.00018327		 0.00002452	
O		7.61436878		6.64471371		1.86027291		-0.00023928		 0.00054694		 0.00042207	
O		0.91398817		1.41004187		3.47582965		 0.00023928		-0.00054694		-0.00042207	
O		0.85195973		0.29677364		0.95411106		-0.00032450		 0.00015327		 0.00013587	
O		7.67639631		7.75798104		4.38199331		 0.00032450		-0.00015327		-0.00013587	
O		7.93871785		4.17433378		1.74943975		-0.00005810		 0.00001906		-0.00006622	
O		0.58963819		3.88042090		3.58666372		 0.00005810		-0.00001906		 0.00006622	
O		0.94307183		5.46924684		0.76361421		 0.00020684		-0.00011135		-0.00016888	
O		7.58528420		2.58550874		4.57248925		-0.00020684		 0.00011135		 0.00016888	
O		7.84760574		1.76711663		2.16115570		-0.00001532		 0.00023479		 0.00037675	
O		0.68075029		6.28763895		3.17494686		 0.00001532		-0.00023479		-0.00037675	
