# total energy = -22436.98635 eV	

CRYSTAL	
PRIMVEC	
		9.05300002		0.00000000		0.00000000	
		0.00000000		7.67699834		-1.22832010	
		-0.52464851		-0.75550906		4.72194523	
PRIMCOORD
   40 1	
Ca		6.64561268		0.45012602		0.34253474		-0.00049466		-0.00033030		-0.00004269	
Ca		1.88274336		6.47136325		3.15108768		 0.00049466		 0.00033030		 0.00004269	
Ca		2.14506490		4.04701420		1.23845312		 0.00027569		-0.00067945		 0.00019942	
Ca		6.38329114		2.87447598		2.25517020		-0.00027569		 0.00067945		-0.00019942	
Mg		1.97928999		0.95517388		1.70231979		 0.00069465		-0.00018440		-0.00004884	
Mg		6.54906696		5.96631629		1.79130263		-0.00069465		 0.00018440		 0.00004884	
Mg		6.81138940		5.02516188		-0.35864274		-0.00010903		 0.00008466		-0.00009677	
Mg		1.71696845		1.89632739		3.85226697		 0.00010903		-0.00008466		 0.00009677	
Si		4.38151984		0.92480741		1.98094216		 0.00006926		 0.00036795		 0.00036892	
Si		4.14683711		5.99668187		1.51268116		-0.00006926		-0.00036795		-0.00036892	
Si		4.40915865		5.08470166		-0.64193284		-0.00037195		 0.00042286		 0.00042301	
Si		4.11919830		1.83678762		4.13555616		 0.00037195		-0.00042286		-0.00042301	
Si		0.14788438		6.35946002		0.19440593		-0.00020384		 0.00060398		 0.00015664	
Si		8.38047347		0.56202925		3.29921739		 0.00020384		-0.00060398		-0.00015664	
Si		8.64279501		2.54120698		0.68201771		 0.00005642		 0.00021296		-0.00028159	
Si		-0.11443807		4.38028229		2.81160470		-0.00005642		-0.00021296		 0.00028159	
O		3.50493414		1.21441921		0.32515298		 0.00004849		 0.00018213		 0.00038558	
O		5.02342190		5.70707006		3.16847034		-0.00004849		-0.00018213		-0.00038558	
O		5.28574434		4.84575768		1.00575028		-0.00036627		-0.00032152		-0.00038002	
O		3.24261170		2.07573069		2.48787395		 0.00036627		 0.00032152		 0.00038002	
O		3.49747718		3.64401085		-0.18873061		 0.00069944		-0.00041635		 0.00020419	
O		5.03087976		3.27747842		3.68235393		-0.00069944		 0.00041635		-0.00020419	
O		5.29320220		7.23425141		0.74874014		-0.00037098		 0.00008863		 0.00022222	
O		3.23515474		-0.31276123		2.74488319		 0.00037098		-0.00008863		-0.00022222	
O		5.43097891		2.04894829		0.90203187		 0.00006423		 0.00016985		-0.00027070	
O		3.09737713		4.87254098		2.59159145		-0.00006423		-0.00016985		 0.00027070	
O		3.35969867		5.91358891		0.12449324		-0.00065368		-0.00000026		 0.00004131	
O		5.16865737		1.00790037		3.36913099		 0.00065368		 0.00000026		-0.00004131	
O		1.17630971		2.53543841		0.59183988		-0.00035201		-0.00022212		 0.00016030	
O		7.35204724		4.38605086		2.90178345		 0.00035201		 0.00022212		-0.00016030	
O		7.61436878		6.32377219		0.29121690		 0.00044650		 0.00063846		 0.00025853	
O		0.91398817		0.59771708		3.20240642		-0.00044650		-0.00063846		-0.00025853	
O		0.85195973		0.07204740		0.90086313		-0.00000523		 0.00009222		-0.00012753	
O		7.67639631		6.84944097		2.59276019		 0.00000523		-0.00009222		 0.00012753	
O		7.93871785		3.83242823		0.77495219		 0.00018354		 0.00050004		-0.00013259	
O		0.58963819		3.08906105		2.71867113		-0.00018354		-0.00050004		 0.00013259	
O		0.94307183		5.39048484		-0.54270381		 0.00052560		 0.00029086		 0.00011929	
O		7.58528420		1.53100444		4.03632714		-0.00052560		-0.00029086		-0.00011929	
O		7.84760574		1.27924503		1.77607820		-0.00041698		 0.00011895		-0.00056086	
O		0.68075029		5.64224424		1.71754512		 0.00041698		-0.00011895		 0.00056086	
