# total energy = -22448.8072491 eV	

CRYSTAL	
PRIMVEC	
		9.05300002		0.00000000		0.00000000	
		0.00000000		7.67699834		-0.61415552	
		-0.52464851		-0.37775453		4.72194523	
PRIMCOORD
   40 1	
Ca		6.64561268		0.48416168		0.38399114		-0.00054324		 0.00043472		-0.00054266	
Ca		1.88274336		6.81508303		3.72379223		 0.00054324		-0.00043472		 0.00054266	
Ca		2.14506490		4.20185581		1.58698909		-0.00033580		 0.00047651		-0.00029085	
Ca		6.38329114		3.09738890		2.52079518		 0.00033580		-0.00047651		 0.00029085	
Mg		1.97928999		1.10748518		1.80310412		-0.00010601		 0.00094477		-0.00065003	
Mg		6.54906696		6.19176044		2.30467925		 0.00010601		-0.00094477		 0.00065003	
Mg		6.81138940		5.06172876		0.04922026		 0.00022736		 0.00066821		 0.00012010	
Mg		1.71696845		2.23751595		4.05856311		-0.00022736		-0.00066821		-0.00012010	
Si		4.38151984		1.09959458		2.08289342		 0.00025311		-0.00000987		 0.00054053	
Si		4.14683711		6.19965013		2.02489085		-0.00025311		 0.00000987		-0.00054053	
Si		4.40915865		5.09879174		-0.23290201		 0.00007979		-0.00037182		-0.00018961	
Si		4.11919830		2.20045297		4.34068537		-0.00007979		 0.00037182		 0.00018961	
Si		0.14788438		6.45896064		0.71908341		-0.00047793		 0.00051164		-0.00006095	
Si		8.38047347		0.84028407		3.38870086		 0.00047793		-0.00051164		 0.00006095	
Si		8.64279501		2.63058363		0.89961472		 0.00013838		-0.00035455		 0.00047581	
Si		-0.11443807		4.66866018		3.20816775		-0.00013838		 0.00035455		-0.00047581	
O		3.50493414		1.25706790		0.42913031		 0.00073953		 0.00038680		-0.00027271	
O		5.02342190		6.04217681		3.67865306		-0.00073953		-0.00038680		 0.00027271	
O		5.28574434		4.99198717		1.41680718		-0.00009150		-0.00026766		-0.00035466	
O		3.24261170		2.30725664		2.69097619		 0.00009150		 0.00026766		 0.00035466	
O		3.49747718		3.67638529		0.10796970		-0.00029115		-0.00031614		 0.00006586	
O		5.03087976		3.62286033		3.99981367		 0.00029115		 0.00031614		-0.00006586	
O		5.29320220		7.39075515		1.35252001		-0.00000698		-0.00077423		 0.00004601	
O		3.23515474		-0.09151044		2.75526336		 0.00000698		 0.00077423		-0.00004601	
O		5.43097891		2.14992184		1.08210419		-0.00012235		 0.00067182		 0.00049873	
O		3.09737713		5.14932197		3.02568009		 0.00012235		-0.00067182		-0.00049873	
O		3.35969867		6.00149263		0.61164422		-0.00062173		 0.00047569		-0.00071114	
O		5.16865737		1.29775208		3.49613915		 0.00062173		-0.00047569		 0.00071114	
O		1.17630971		2.61733637		0.80777928		 0.00054447		 0.00040173		-0.00017081	
O		7.35204724		4.68190924		3.30000500		-0.00054447		-0.00040173		 0.00017081	
O		7.61436878		6.43075330		0.81423587		 0.00011405		 0.00013181		 0.00015534	
O		0.91398817		0.86849231		3.29354840		-0.00011405		-0.00013181		-0.00015534	
O		0.85195973		0.14695644		0.91861244		-0.00050012		-0.00033802		-0.00009676	
O		7.67639631		7.15228827		3.18917093		 0.00050012		 0.00033802		 0.00009676	
O		7.93871785		3.94639735		1.09978108		 0.00002816		-0.00009231		-0.00031600	
O		0.58963819		3.35284827		3.00800229		-0.00002816		 0.00009231		 0.00031600	
O		0.94307183		5.41673944		-0.10726357		 0.00025928		 0.00033262		-0.00071849	
O		7.58528420		1.88250617		4.21504784		-0.00025928		-0.00033262		 0.00071849	
O		7.84760574		1.44186860		1.90443707		-0.00003671		 0.00004742		 0.00003671	
O		0.68075029		5.85737521		2.20334630		 0.00003671		-0.00004742		-0.00003671	
