# total energy = -13384.5621366 eV

CRYSTAL
PRIMVEC
		3.05300065		0.00000000		0.36635934
		-1.52649879		2.64397703		-0.18318121
		2.41500129		0.00000000		20.12500151
PRIMECORD
   18 1
O		0.75179015		0.00000000		6.26491322		 0.00044309		-0.00066253		-0.00003320
O		1.66321021		0.00000000		13.86008767		-0.00044309		 0.00066253		 0.00003320
O		2.56060318		0.88132506		8.80070531		 0.00064345		-0.00015951		-0.00008725
O		1.38089720		1.76265012		11.50747556		-0.00064345		 0.00015951		 0.00008725
O		1.69989719		0.88132506		1.62815509		 0.00025943		 0.00011355		-0.00034741
O		2.24160319		1.76265012		18.68002609		-0.00025943		-0.00011355		 0.00034741
O		0.45571111		1.76265012		3.79758815		 0.00045537		-0.00029233		 0.00061545
O		3.48578928		0.88132506		16.51059272		-0.00045537		 0.00029233		-0.00061545
H		2.67942113		0.88132506		9.79085550		-0.00009143		-0.00061309		 0.00081782
H		1.26207895		1.76265012		10.51732567		 0.00009143		 0.00061309		-0.00081782
H		1.58107893		0.88132506		0.63800490		 0.00019960		-0.00009291		 0.00002094
H		2.36042114		1.76265012		19.67017597		-0.00019960		 0.00009291		-0.00002094
Mg		0.90055397		1.76265012		7.50461333		-0.00003507		 0.00013701		 0.00087848
Mg		3.04094611		0.88132506		12.80356754		 0.00003507		-0.00013701		-0.00087848
Mg		0.30694698		0.00000000		2.55788804		 0.00003960		 0.00027375		 0.00037046
Mg		2.10805400		0.00000000		17.56711377		-0.00003960		-0.00027375		-0.00037046
Mg		2.13049218		0.88132506		5.21644226		 0.00035316		-0.00057279		 0.00001793
Mg		1.81100820		1.76265012		15.09173768		-0.00035316		 0.00057279		-0.00001793
