# total energy = -18389.8172205 eV

CRYSTAL
PRIMVEC
		4.81499975		0.00000000		0.00000000
		0.00000000		11.07999815		-0.88639812
		0.00000000		-0.50960031		6.36999910
PRIMECORD
   28 1
Mg		0.00000000		0.00000000		0.00000000		0.00000000		0.00000000		0.00000000
Mg		2.40749987		5.53999956		-0.44320002		0.00000000		0.00000000		0.00000000
Mg		0.00000000		-0.25480016		3.18500003		0.00000000		0.00000000		0.00000000
Mg		2.40749987		5.28519988		2.74180001		0.00000000		-0.00000000		-0.00000000
Ca		4.73314475		2.72015996		1.36469516		-0.00006286		-0.00003511		-0.00016740
Ca		0.08185500		7.85023980		4.11890486		 0.00006286		 0.00003511		 0.00016740
Ca		2.32564488		2.31023977		4.56210489		-0.00006286		 0.00003511		 0.00016740
Ca		2.48935487		8.26015951		0.92149513		 0.00006286		-0.00003511		-0.00016740
Si		1.94044490		0.82548019		1.51626990		 0.00020580		 0.00015727		 0.00021576
Si		2.87455485		9.74491958		3.96732963		-0.00020580		-0.00015727		-0.00021576
Si		4.34794477		4.20492002		4.41052966		 0.00020580		-0.00015727		-0.00021576
Si		0.46705498		6.36547974		1.07306988		-0.00020580		 0.00015727		 0.00021576
O		3.67865981		0.61495973		1.53311085		-0.00009020		-0.00009918		-0.00004173
O		1.13633994		9.95543955		3.95048869		 0.00009020		 0.00009918		 0.00004173
O		1.27115993		4.41543999		4.39368871		-0.00009020		 0.00009918		 0.00004173
O		3.54383981		6.15495977		1.08991082		 0.00009020		-0.00009918		-0.00004173
O		3.54383981		5.01371960		1.18120996		-0.00012076		-0.00002359		 0.00040233
O		1.27115993		5.55667968		4.30238958		 0.00012076		 0.00002359		-0.00040233
O		1.13633994		0.01668012		4.74558960		-0.00012076		 0.00002359		-0.00040233
O		3.67865981		10.55371964		0.73800994		 0.00012076		-0.00002359		 0.00040233
O		1.20374994		1.67995197		0.05548083		-0.00031197		-0.00009670		 0.00014597
O		3.61124981		8.89044731		5.42811870		 0.00031197		 0.00009670		-0.00014597
O		3.61124981		3.35044776		5.87131873		-0.00031197		 0.00009670		-0.00014597
O		1.20374994		7.21995152		-0.38771919		 0.00031197		-0.00009670		 0.00014597
O		3.61124981		9.11467174		2.62531891		-0.00000694		 0.00002055		 0.00024999
O		1.20374994		1.45572802		2.85828063		 0.00000694		-0.00002055		-0.00024999
O		1.20374994		6.99572758		2.41508109		-0.00000694		-0.00002055		-0.00024999
O		3.61124981		3.57467170		3.06851893		 0.00000694		 0.00002055		 0.00024999
