# total energy = -18389.8171077 eV

CRYSTAL
PRIMVEC
		4.81499975		0.00000000		0.00000000
		0.00000000		11.07999815		0.88639812
		0.00000000		0.50960031		6.36999910
PRIMECORD
   28 1
Mg		0.00000000		0.00000000		0.00000000		-0.00000000		-0.00000000		0.00000000
Mg		2.40749987		5.53999956		0.44320002		0.00000000		0.00000000		0.00000000
Mg		0.00000000		0.25480016		3.18500003		-0.00000000		-0.00000000		0.00000000
Mg		2.40749987		5.79479971		3.62819957		0.00000000		0.00000000		0.00000000
Ca		4.73314475		2.97495963		1.82030488		-0.00017104		 0.00020761		-0.00000741
Ca		0.08185500		8.61463931		5.43609475		 0.00017104		-0.00020761		 0.00000741
Ca		2.32564488		3.07463976		4.99289473		-0.00017104		-0.00020761		 0.00000741
Ca		2.48935487		8.51495967		2.26350490		 0.00017104		 0.00020761		-0.00000741
Si		1.94044490		1.08027986		1.66873013		 0.00048838		 0.00036801		-0.00015036
Si		2.87455485		10.50931956		5.58766853		-0.00048838		-0.00036801		 0.00015036
Si		4.34794477		4.96931953		5.14446996		 0.00048838		-0.00036801		 0.00015036
Si		0.46705498		6.62027942		2.11192967		-0.00048838		 0.00036801		-0.00015036
O		3.67865981		0.86975989		1.65188870		-0.00041924		-0.00050130		 0.00016323
O		1.13633994		10.71983954		5.60451092		 0.00041924		 0.00050130		-0.00016323
O		1.27115993		5.17983950		5.16131090		-0.00041924		 0.00050130		-0.00016323
O		3.54383981		6.40975944		2.09508873		 0.00041924		-0.00050130		 0.00016323
O		3.54383981		5.26851976		2.00379007		 0.00037492		 0.00011061		 0.00009776
O		1.27115993		6.32107967		5.25260955		-0.00037492		-0.00011061		-0.00009776
O		1.13633994		0.78108011		4.80940953		 0.00037492		-0.00011061		-0.00009776
O		3.67865981		10.80851931		2.44699009		-0.00037492		 0.00011061		 0.00009776
O		1.20374994		1.71052770		0.32671892		 0.00013872		-0.00017860		 0.00042543
O		3.61124981		9.87907125		6.92968071		-0.00013872		 0.00017860		-0.00042543
O		3.61124981		4.33907169		6.48648069		 0.00013872		 0.00017860		-0.00042543
O		1.20374994		7.25052773		0.76991894		-0.00013872		-0.00017860		 0.00042543
O		3.61124981		9.65484730		4.12688091		 0.00009676		-0.00006597		-0.00041326
O		1.20374994		1.93475212		3.12951872		-0.00009676		 0.00006597		 0.00041326
O		1.20374994		7.47475168		3.57271874		 0.00009676		 0.00006597		 0.00041326
O		3.61124981		4.11484775		3.68368089		-0.00009676		-0.00006597		-0.00041326
