# total energy = -18386.0536997 eV

CRYSTAL
PRIMVEC
		4.81499975		0.00000000		0.00000000
		0.00000000		11.07999815		1.32959959
		0.00000000		0.76440047		6.36999910
PRIMECORD
   28 1
Mg		0.00000000		0.00000000		0.00000000		0.00000000		0.00000000		0.00000000
Mg		2.40749987		5.53999956		0.66479979		0.00000000		-0.00000000		0.00000000
Mg		0.00000000		0.38219975		3.18500003		0.00000000		0.00000000		0.00000000
Mg		2.40749987		5.92219979		3.84979982		0.00000000		-0.00000000		0.00000000
Ca		4.73314475		3.03865967		1.93420707		-0.00019946		 0.00011066		 0.00068219
Ca		0.08185500		8.80573943		5.76539258		 0.00019946		-0.00011066		-0.00068219
Ca		2.32564488		3.26573987		5.10059279		-0.00019946		-0.00011066		-0.00068219
Ca		2.48935487		8.57865971		2.59900686		 0.00019946		 0.00011066		 0.00068219
Si		1.94044490		1.14397990		1.70684615		 0.00027334		-0.00032696		 0.00012460
Si		2.87455485		10.70041920		5.99275350		-0.00027334		 0.00032696		-0.00012460
Si		4.34794477		5.16041964		5.32795371		 0.00027334		 0.00032696		-0.00012460
Si		0.46705498		6.68397946		2.37164594		-0.00027334		-0.00032696		 0.00012460
O		3.67865981		0.93345993		1.68158281		-0.00017606		 0.00043004		 0.00015816
O		1.13633994		10.91093966		6.01801684		 0.00017606		-0.00043004		-0.00015816
O		1.27115993		5.37093962		5.35321657		-0.00017606		-0.00043004		-0.00015816
O		3.54383981		6.47345948		2.34638308		 0.00017606		 0.00043004		 0.00015816
O		3.54383981		5.33221980		2.20943390		-0.00030930		 0.00039404		-0.00055512
O		1.27115993		6.51217978		5.49016575		 0.00030930		-0.00039404		 0.00055512
O		1.13633994		0.97217975		4.82536596		-0.00030930		-0.00039404		 0.00055512
O		3.67865981		10.87221935		2.87423369		 0.00030930		 0.00039404		-0.00055512
O		1.20374994		1.71817199		0.39452904		 0.00025315		-0.00058925		 0.00048408
O		3.61124981		10.12622759		7.30507061		-0.00025315		 0.00058925		-0.00048408
O		3.61124981		4.58622755		6.64027081		 0.00025315		 0.00058925		-0.00048408
O		1.20374994		7.25817155		1.05932883		-0.00025315		-0.00058925		 0.00048408
O		3.61124981		9.78989167		4.50227081		-0.00031176		-0.00076501		 0.00016255
O		1.20374994		2.05450791		3.19732884		 0.00031176		 0.00076501		-0.00016255
O		1.20374994		7.59450746		3.86212863		-0.00031176		 0.00076501		-0.00016255
O		3.61124981		4.24989164		3.83747102		 0.00031176		-0.00076501		 0.00016255
