# total energy = -7715.7007354 eV

CRYSTAL
PRIMVEC
		4.22371778		0.00000000		0.00000000
		0.00000000		4.44602050		0.00000000
		0.00000000		0.00000000		4.44602050
PRIMECORD
   8 1
Ca		0.00000000		0.00000000		0.00000000		0.00000000		0.00000000		0.00000000
Mg		0.00000000		2.22300983		2.22300983		0.00000000		0.00000000		0.00000000
Mg		2.11185889		0.00000000		2.22300983		0.00000000		0.00000000		0.00000000
Mg		2.11185889		2.22300983		0.00000000		0.00000000		0.00000000		0.00000000
O		0.00000000		0.00000000		2.22300983		0.00000000		0.00000000		0.00000000
O		2.11185889		0.00000000		0.00000000		0.00000000		0.00000000		0.00000000
O		0.00000000		2.22300983		0.00000000		0.00000000		0.00000000		0.00000000
O		2.11185889		2.22300983		2.22300983		0.00000000		0.00000000		0.00000000
