# total energy = -7715.43851851 eV

CRYSTAL
PRIMVEC
		4.77947079		0.00000000		0.00000000
		0.00000000		4.44601667		0.00000000
		0.00000000		0.00000000		4.44601667
PRIMECORD
   8 1
Ca		0.00000000		0.00000000		0.00000000		0.00000000		0.00000000		0.00000000
Mg		0.00000000		2.22300977		2.22300977		0.00000000		0.00000000		0.00000000
Mg		2.38973492		0.00000000		2.22300977		0.00000000		0.00000000		0.00000000
Mg		2.38973492		2.22300977		0.00000000		0.00000000		0.00000000		0.00000000
O		0.00000000		0.00000000		2.22300977		0.00000000		0.00000000		0.00000000
O		2.38973492		0.00000000		0.00000000		0.00000000		0.00000000		0.00000000
O		0.00000000		2.22300977		0.00000000		0.00000000		0.00000000		0.00000000
O		2.38973492		2.22300977		2.22300977		0.00000000		0.00000000		0.00000000
