# total energy = -7715.61122524 eV

CRYSTAL
PRIMVEC
		4.66831977		0.00000000		0.00000000
		0.00000000		4.44601905		0.00000000
		0.00000000		0.00000000		4.44601905
PRIMECORD
   8 1
Ca		0.00000000		0.00000000		0.00000000		0.00000000		0.00000000		0.00000000
Mg		0.00000000		2.22300999		2.22300999		0.00000000		0.00000000		0.00000000
Mg		2.33415988		0.00000000		2.22300999		0.00000000		0.00000000		0.00000000
Mg		2.33415988		2.22300999		0.00000000		0.00000000		0.00000000		0.00000000
O		0.00000000		0.00000000		2.22300999		0.00000000		0.00000000		0.00000000
O		2.33415988		0.00000000		0.00000000		0.00000000		0.00000000		0.00000000
O		0.00000000		2.22300999		0.00000000		0.00000000		0.00000000		0.00000000
O		2.33415988		2.22300999		2.22300999		0.00000000		0.00000000		0.00000000
