# total energy = -20636.0686059 eV	

CRYSTAL	
PRIMVEC	
		10.20141117		1.22416687		0.00000000	
		0.71801967		5.98348356		0.00000000	
		0.00000000		0.00000000		4.75534041	
PRIMCOORD
   28 1	
Mg		0.00000000		0.00000000		0.00000000		0.00000000		0.00000000		0.00000000	
Mg		5.10070456		0.61208446		2.37767021		0.00000000		-0.00000000		-0.00000000	
Mg		0.35900881		2.99173972		0.00000000		0.00000000		0.00000000		0.00000000	
Mg		5.45971336		3.60382521		2.37767021		0.00000000		-0.00000000		0.00000000	
Mg		3.00835477		1.83533176		4.71492015		 0.00043634		-0.00075921		-0.00047684	
Mg		7.91107195		5.37231661		0.04042027		-0.00043634		 0.00075921		 0.00047684	
Mg		2.81036637		4.76023215		2.33724994		-0.00043634		 0.00075921		-0.00047684	
Mg		8.10906036		2.44741725		2.41808944		 0.00043634		-0.00075921		 0.00047684	
Si		1.13843666		1.61094175		2.02767736		 0.00043676		-0.00022942		 0.00022764	
Si		9.78099006		5.59670662		2.72766306		-0.00043676		 0.00022942		-0.00022764	
Si		4.68028551		4.98462318		4.40534654		-0.00043676		 0.00022942		 0.00022764	
Si		6.23914122		2.22302622		0.34999285		 0.00043676		-0.00022942		-0.00022764	
O		1.11395435		1.60800425		3.63926230		-0.00024546		 0.00041197		 0.00048209	
O		9.80547340		5.59964516		1.11607811		 0.00024546		-0.00041197		-0.00048209	
O		4.70476885		4.98756069		1.26159209		 0.00024546		-0.00041197		 0.00048209	
O		6.21465891		2.22008871		3.49374832		-0.00024546		 0.00041197		-0.00048209	
O		4.73851473		2.04295055		1.05140569		 0.00040684		-0.00022300		 0.00012163	
O		6.18091302		5.16469783		3.70393472		-0.00040684		 0.00022300		-0.00012163	
O		1.08020744		4.55261234		3.42907589		-0.00040684		 0.00022300		 0.00012163	
O		9.83921929		2.65503604		1.32626349		 0.00040684		-0.00022300		-0.00012163	
O		1.68360781		0.39782418		1.32103269		-0.00044546		-0.00004855		-0.00021861	
O		9.23581994		6.80982419		3.43430669		 0.00044546		 0.00004855		 0.00021861	
O		4.13511436		6.19774076		3.69870290		 0.00044546		 0.00004855		-0.00021861	
O		6.78431237		1.00990762		1.05663649		-0.00044546		-0.00004855		 0.00021861	
O		8.92448732		4.21538876		3.43430669		-0.00001822		 0.00010527		-0.00030927	
O		1.99493941		2.99226065		1.32103269		 0.00001822		-0.00010527		 0.00030927	
O		7.09564499		3.60434511		1.05663649		 0.00001822		-0.00010527		-0.00030927	
O		3.82378276		3.60330429		3.69870290		-0.00001822		 0.00010527		 0.00030927	
