# total energy = -44012.578489 eV	

CRYSTAL	
PRIMVEC	
		9.57254990		0.00000000		0.00000000	
		0.00000000		18.04700389		0.00000000	
		-1.30076594		0.00000000		5.10349968	
PRIMCOORD
   82 1	
Si		2.29859610		1.51594825		1.51267922		-0.00011888		 0.00013359		-0.00022515	
Si		5.97318690		16.53105276		3.59082524		 0.00011888		-0.00013359		 0.00022515	
Si		5.97318690		1.51594825		3.59082524		 0.00011888		 0.00013359		 0.00022515	
Si		2.29859610		16.53105276		1.51267922		-0.00011888		-0.00013359		-0.00022515	
Si		7.08487105		10.53944828		1.51267922		-0.00012991		 0.00015994		-0.00022507	
Si		1.18691195		7.50755274		3.59082524		 0.00012991		-0.00015994		 0.00022507	
Si		1.18691195		10.53944828		3.59082524		 0.00012991		 0.00015994		 0.00022507	
Si		7.08487105		7.50755274		1.51267922		-0.00012991		-0.00015994		-0.00022507	
Si		1.71751839		3.08784231		4.10423843		 0.00007539		-0.00002626		-0.00012774	
Si		6.55426461		14.95915870		0.99926604		-0.00007539		 0.00002626		 0.00012774	
Si		6.55426461		3.08784231		0.99926604		-0.00007539		-0.00002626		 0.00012774	
Si		1.71751839		14.95915870		4.10423843		 0.00007539		 0.00002626		-0.00012774	
Si		6.50379334		12.11134330		4.10423843		 0.00009937		 0.00003733		-0.00012086	
Si		1.76798870		5.93565772		0.99926604		-0.00009937		-0.00003733		 0.00012086	
Si		1.76798870		12.11134330		0.99926604		-0.00009937		 0.00003733		 0.00012086	
Si		6.50379334		5.93565772		4.10423843		 0.00009937		-0.00003733		-0.00012086	
O		2.52375683		2.13856987		3.00290220		 0.00004509		 0.00010502		-0.00035794	
O		5.74802617		15.90843114		2.10060226		-0.00004509		-0.00010502		 0.00035794	
O		5.74802617		2.13856987		2.10060226		-0.00004509		 0.00010502		 0.00035794	
O		2.52375683		15.90843114		3.00290220		 0.00004509		-0.00010502		-0.00035794	
O		7.31003178		11.16206990		3.00290220		 0.00003511		 0.00014727		-0.00037293	
O		0.96175122		6.88493112		2.10060226		-0.00003511		-0.00014727		 0.00037293	
O		0.96175122		11.16206990		2.10060226		-0.00003511		 0.00014727		 0.00037293	
O		7.31003178		6.88493112		3.00290220		 0.00003511		-0.00014727		-0.00037293	
O		0.78685690		1.55204155		1.10797096		-0.00018014		-0.00018355		 0.00002548	
O		7.48492514		16.49495755		3.99553255		 0.00018014		 0.00018355		-0.00002548	
O		7.48492514		1.55204155		3.99553255		 0.00018014		-0.00018355		-0.00002548	
O		0.78685690		16.49495755		1.10797096		-0.00018014		 0.00018355		 0.00002548	
O		5.57313185		10.57554253		1.10797096		-0.00019562		-0.00015011		 0.00001457	
O		2.69865115		7.47145752		3.99553255		 0.00019562		 0.00015011		-0.00001457	
O		2.69865115		10.57554253		3.99553255		 0.00019562		-0.00015011		-0.00001457	
O		5.57313185		7.47145752		1.10797096		-0.00019562		 0.00015011		 0.00001457	
O		2.46591087		4.47565624		4.04860851		 0.00012558		 0.00023147		-0.00008293	
O		5.80587213		13.57134382		1.05489404		-0.00012558		-0.00023147		 0.00008293	
O		5.80587213		4.47565624		1.05489404		-0.00012558		 0.00023147		 0.00008293	
O		2.46591087		13.57134382		4.04860851		 0.00012558		-0.00023147		-0.00008293	
O		7.25218582		13.49915722		4.04860851		 0.00012516		 0.00023445		-0.00005990	
O		1.01959718		4.54784379		1.05489404		-0.00012516		-0.00023445		 0.00005990	
O		1.01959718		13.49915722		1.05489404		-0.00012516		 0.00023445		 0.00005990	
O		7.25218582		4.54784379		4.04860851		 0.00012516		-0.00023445		-0.00005990	
O		2.84599471		0.00000000		1.49073320		-0.00010237		0.00000000		 0.00036738	
O		5.42578733		0.00000000		3.61277031		 0.00010237		0.00000000		-0.00036738	
O		7.63226966		9.02350003		1.49073320		-0.00015628		0.00000000		 0.00038913	
O		0.63951238		9.02350003		3.61277031		 0.00015628		0.00000000		-0.00038913	
O		0.19259205		3.08964674		3.69493725		 0.00025293		-0.00009139		 0.00027964	
O		8.07919095		14.95735428		1.40856721		-0.00025293		 0.00009139		-0.00027964	
O		8.07919095		3.08964674		1.40856721		-0.00025293		-0.00009139		-0.00027964	
O		0.19259205		14.95735428		3.69493725		 0.00025293		 0.00009139		 0.00027964	
O		4.97886700		12.11314772		3.69493725		 0.00024477		-0.00005065		 0.00027240	
O		3.29291600		5.93385425		1.40856721		-0.00024477		 0.00005065		-0.00027240	
O		3.29291600		12.11314772		1.40856721		-0.00024477		-0.00005065		-0.00027240	
O		4.97886700		5.93385425		3.69493725		 0.00024477		 0.00005065		 0.00027240	
O		0.11884321		0.00000000		3.65002572		 0.00035190		0.00000000		-0.00020932	
O		8.15293979		0.00000000		1.45347779		-0.00035190		0.00000000		 0.00020932	
O		4.90511816		9.02350003		3.65002572		 0.00027359		0.00000000		-0.00022350	
O		3.36666484		9.02350003		1.45347779		-0.00027359		0.00000000		 0.00022350	
O		3.18785344		2.42371220		0.50626823		 0.00018335		-0.00005148		 0.00003404	
O		5.08392956		15.62328881		4.59723624		-0.00018335		 0.00005148		-0.00003404	
O		5.08392956		2.42371220		4.59723624		-0.00018335		-0.00005148		-0.00003404	
O		3.18785344		15.62328881		0.50626823		 0.00018335		 0.00005148		 0.00003404	
O		7.97412839		11.44721319		0.50626823		 0.00017378		-0.00004321		 0.00004072	
O		0.29765461		6.59978783		4.59723624		-0.00017378		 0.00004321		-0.00004072	
O		0.29765461		11.44721319		4.59723624		-0.00017378		-0.00004321		-0.00004072	
O		7.97412839		6.59978783		0.50626823		 0.00017378		 0.00004321		 0.00004072	
Ca		-0.65038393		5.00984664		2.55175176		0.00000000		 0.00014802		0.00000000	
Ca		-0.65038393		13.03715342		2.55175176		0.00000000		-0.00014802		0.00000000	
Ca		4.13589102		14.03334763		2.55175176		0.00000000		 0.00018341		0.00000000	
Ca		4.13589102		4.01365339		2.55175176		0.00000000		-0.00018341		0.00000000	
Mg		0.00000000		0.00000000		0.00000000		0.00000000		0.00000000		0.00000000	
Mg		4.78627495		9.02350003		0.00000000		0.00000000		0.00000000		0.00000000	
Mg		0.00000000		3.18710008		0.00000000		0.00000000		 0.00060899		0.00000000	
Mg		0.00000000		14.85990093		0.00000000		0.00000000		-0.00060899		0.00000000	
Mg		4.78627495		12.21060011		0.00000000		0.00000000		 0.00063935		0.00000000	
Mg		4.78627495		5.83639995		0.00000000		0.00000000		-0.00063935		0.00000000	
Mg		-0.65038393		1.58452695		2.55175176		0.00000000		 0.00045779		0.00000000	
Mg		-0.65038393		16.46247406		2.55175176		0.00000000		-0.00045779		0.00000000	
Mg		4.13589102		10.60802794		2.55175176		0.00000000		 0.00048148		0.00000000	
Mg		4.13589102		7.43897403		2.55175176		0.00000000		-0.00048148		0.00000000	
H		0.90334718		0.00000000		3.92969830		-0.00025465		0.00000000		-0.00067208	
H		7.36843583		0.00000000		1.17380617		 0.00025465		0.00000000		 0.00067208	
H		5.68962213		9.02350003		3.92969830		-0.00022063		0.00000000		-0.00066430	
H		2.58216087		9.02350003		1.17380617		 0.00022063		0.00000000		 0.00066430	
