# total energy = -92495.9379578 eV	

CRYSTAL	
PRIMVEC	
		18.49999946		0.00000000		0.00000000	
		0.00000000		19.24249694		0.00000000	
		0.00000000		0.00000000		5.27000235	
PRIMCOORD
   164 1	
Mg		2.40499993		3.27122355		2.00259904		 0.00011588		-0.00000396		 0.00010007	
Mg		16.09499953		15.97126598		3.26739960		-0.00011588		 0.00000396		-0.00010007	
Mg		6.84499980		15.97126598		4.63760021		-0.00011588		 0.00000396		 0.00010007	
Mg		11.65499966		3.27122355		0.63240028		 0.00011588		-0.00000396		-0.00010007	
Mg		16.09499953		12.89246832		3.26739960		-0.00011588		-0.00000396		-0.00010007	
Mg		2.40499993		6.35002121		2.00259904		 0.00011588		 0.00000396		 0.00010007	
Mg		11.65499966		6.35002121		0.63240028		 0.00011588		 0.00000396		-0.00010007	
Mg		6.84499980		12.89246832		4.63760021		-0.00011588		-0.00000396		 0.00010007	
Mg		2.40499993		1.53939975		4.58489927		-0.00017215		-0.00003483		-0.00004103	
Mg		16.09499953		17.70308978		0.68509938		 0.00017215		 0.00003483		 0.00004103	
Mg		6.84499980		17.70308978		1.94989994		 0.00017215		 0.00003483		-0.00004103	
Mg		11.65499966		1.53939975		3.32010055		-0.00017215		-0.00003483		 0.00004103	
Mg		16.09499953		11.16064267		0.68509938		 0.00017215		-0.00003483		 0.00004103	
Mg		2.40499993		8.08184501		4.58489927		-0.00017215		 0.00003483		-0.00004103	
Mg		11.65499966		8.08184501		3.32010055		-0.00017215		 0.00003483		 0.00004103	
Mg		6.84499980		11.16064267		1.94989994		 0.00017215		-0.00003483		-0.00004103	
Mg		2.40499993		18.85763960		2.00259904		-0.00043489		 0.00002870		-0.00001674	
Mg		16.09499953		0.38484994		3.26739960		 0.00043489		-0.00002870		 0.00001674	
Mg		6.84499980		0.38484994		4.63760021		 0.00043489		-0.00002870		-0.00001674	
Mg		11.65499966		18.85763960		0.63240028		-0.00043489		 0.00002870		 0.00001674	
Mg		16.09499953		9.23639483		3.26739960		 0.00043489		 0.00002870		 0.00001674	
Mg		2.40499993		10.00609286		2.00259904		-0.00043489		-0.00002870		-0.00001674	
Mg		11.65499966		10.00609286		0.63240028		-0.00043489		-0.00002870		 0.00001674	
Mg		6.84499980		9.23639483		4.63760021		 0.00043489		 0.00002870		-0.00001674	
Mg		2.40499993		4.81062146		4.58489927		-0.00000213		0.00000000		 0.00016630	
Mg		16.09499953		14.43186623		0.68509938		 0.00000213		0.00000000		-0.00016630	
Mg		6.84499980		14.43186623		1.94989994		 0.00000213		-0.00000000		 0.00016630	
Mg		11.65499966		4.81062146		3.32010055		-0.00000213		0.00000000		-0.00016630	
Si		0.55499998		15.77884009		1.52829976		-0.00017322		-0.00009163		 0.00001158	
Si		17.94500132		3.46364760		3.74170074		 0.00017322		 0.00009163		-0.00001158	
Si		8.69499974		3.46364760		4.16329908		 0.00017322		 0.00009163		 0.00001158	
Si		9.80499786		15.77884009		1.10669957		-0.00017322		-0.00009163		-0.00001158	
Si		17.94500132		6.15759532		3.74170074		 0.00017322		-0.00009163		-0.00001158	
Si		0.55499998		13.08489237		1.52829976		-0.00017322		 0.00009163		 0.00001158	
Si		9.80499786		13.08489237		1.10669957		-0.00017322		 0.00009163		-0.00001158	
Si		8.69499974		6.15759532		4.16329908		 0.00017322		-0.00009163		 0.00001158	
Si		0.55499998		17.70308978		4.16329908		 0.00007771		-0.00001632		 0.00013083	
Si		17.94500132		1.53939975		1.10669957		-0.00007771		 0.00001632		-0.00013083	
Si		8.69499974		1.53939975		1.52829976		-0.00007771		 0.00001632		 0.00013083	
Si		9.80499786		17.70308978		3.74170074		 0.00007771		-0.00001632		-0.00013083	
Si		17.94500132		8.08184501		1.10669957		-0.00007771		-0.00001632		-0.00013083	
Si		0.55499998		11.16064267		4.16329908		 0.00007771		 0.00001632		 0.00013083	
Si		9.80499786		11.16064267		3.74170074		 0.00007771		 0.00001632		-0.00013083	
Si		8.69499974		8.08184501		1.52829976		-0.00007771		-0.00001632		 0.00013083	
Si		4.06999988		17.70308978		0.21080009		-0.00015871		-0.00016987		 0.00000472	
Si		14.42999773		1.53939975		5.05920040		 0.00015871		 0.00016987		-0.00000472	
Si		5.17999985		1.53939975		2.84579942		 0.00015871		 0.00016987		 0.00000472	
Si		13.32000146		17.70308978		2.42419923		-0.00015871		-0.00016987		-0.00000472	
Si		14.42999773		8.08184501		5.05920040		 0.00015871		-0.00016987		-0.00000472	
Si		4.06999988		11.16064267		0.21080009		-0.00015871		 0.00016987		 0.00000472	
Si		13.32000146		11.16064267		2.42419923		-0.00015871		 0.00016987		-0.00000472	
Si		5.17999985		8.08184501		2.84579942		 0.00015871		-0.00016987		 0.00000472	
Si		4.06999988		15.77884009		2.84579942		 0.00014086		-0.00011056		-0.00011096	
Si		14.42999773		3.46364760		2.42419923		-0.00014086		 0.00011056		 0.00011096	
Si		5.17999985		3.46364760		0.21080009		-0.00014086		 0.00011056		-0.00011096	
Si		13.32000146		15.77884009		5.05920040		 0.00014086		-0.00011056		 0.00011096	
Si		14.42999773		6.15759532		2.42419923		-0.00014086		-0.00011056		 0.00011096	
Si		4.06999988		13.08489237		2.84579942		 0.00014086		 0.00011056		-0.00011096	
Si		13.32000146		13.08489237		5.05920040		 0.00014086		 0.00011056		 0.00011096	
Si		5.17999985		6.15759532		0.21080009		-0.00014086		-0.00011056		-0.00011096	
O		1.10999997		1.34697386		1.05400047		 0.00002083		 0.00034851		 0.00023908	
O		17.38999949		17.89551382		4.21600003		-0.00002083		-0.00034851		-0.00023908	
O		8.13999976		17.89551382		3.68899979		-0.00002083		-0.00034851		 0.00023908	
O		10.35999970		1.34697386		1.58100070		 0.00002083		 0.00034851		-0.00023908	
O		17.38999949		10.96821863		4.21600003		-0.00002083		 0.00034851		-0.00023908	
O		1.10999997		8.27427091		1.05400047		 0.00002083		-0.00034851		 0.00023908	
O		10.35999970		8.27427091		1.58100070		 0.00002083		-0.00034851		-0.00023908	
O		8.13999976		10.96821863		3.68899979		-0.00002083		 0.00034851		 0.00023908	
O		1.10999997		3.46364760		3.68899979		 0.00043740		 0.00035926		 0.00007184	
O		17.38999949		15.77884009		1.58100070		-0.00043740		-0.00035926		-0.00007184	
O		8.13999976		15.77884009		1.05400047		-0.00043740		-0.00035926		 0.00007184	
O		10.35999970		3.46364760		4.21600003		 0.00043740		 0.00035926		-0.00007184	
O		17.38999949		13.08489237		1.58100070		-0.00043740		 0.00035926		-0.00007184	
O		1.10999997		6.15759532		3.68899979		 0.00043740		-0.00035926		 0.00007184	
O		10.35999970		6.15759532		4.21600003		 0.00043740		-0.00035926		-0.00007184	
O		8.13999976		13.08489237		1.05400047		-0.00043740		 0.00035926		 0.00007184	
O		1.10999997		14.43186623		1.05400047		 0.00021852		0.00000000		-0.00026003	
O		17.38999949		4.81062146		4.21600003		-0.00021852		-0.00000000		 0.00026003	
O		8.13999976		4.81062146		3.68899979		-0.00021852		-0.00000000		-0.00026003	
O		10.35999970		14.43186623		1.58100070		 0.00021852		0.00000000		 0.00026003	
O		1.10999997		4.81062146		1.05400047		-0.00055064		0.00000000		-0.00014043	
O		17.38999949		14.43186623		4.21600003		 0.00055064		0.00000000		 0.00014043	
O		8.13999976		14.43186623		3.68899979		 0.00055064		0.00000000		-0.00014043	
O		10.35999970		4.81062146		1.58100070		-0.00055064		-0.00000000		 0.00014043	
O		1.10999997		0.00000000		3.68899979		 0.00052380		-0.00035738		-0.00006812	
O		17.38999949		0.00000000		1.58100070		-0.00052380		 0.00035738		 0.00006812	
O		8.13999976		0.00000000		1.05400047		-0.00052380		 0.00035738		-0.00006812	
O		10.35999970		0.00000000		4.21600003		 0.00052380		-0.00035738		 0.00006812	
O		17.38999949		9.62124477		1.58100070		-0.00052380		-0.00035738		 0.00006812	
O		1.10999997		9.62124477		3.68899979		 0.00052380		 0.00035738		-0.00006812	
O		10.35999970		9.62124477		4.21600003		 0.00052380		 0.00035738		 0.00006812	
O		8.13999976		9.62124477		1.05400047		-0.00052380		-0.00035738		-0.00006812	
O		0.92499997		16.74096586		0.26349919		 0.00038446		-0.00032184		-0.00003295	
O		17.57499948		2.50152368		5.00649945		-0.00038446		 0.00032184		 0.00003295	
O		8.32499976		2.50152368		2.89850036		-0.00038446		 0.00032184		-0.00003295	
O		10.17499970		16.74096586		2.37150013		 0.00038446		-0.00032184		 0.00003295	
O		17.57499948		7.11972109		5.00649945		-0.00038446		-0.00032184		 0.00003295	
O		0.92499997		12.12276844		0.26349919		 0.00038446		 0.00032184		-0.00003295	
O		10.17499970		12.12276844		2.37150013		 0.00038446		 0.00032184		 0.00003295	
O		8.32499976		7.11972109		2.89850036		-0.00038446		-0.00032184		-0.00003295	
O		0.92499997		16.74096586		2.84579942		-0.00011479		 0.00010907		 0.00005342	
O		17.57499948		2.50152368		2.42419923		 0.00011479		-0.00010907		-0.00005342	
O		8.32499976		2.50152368		0.21080009		 0.00011479		-0.00010907		 0.00005342	
O		10.17499970		16.74096586		5.05920040		-0.00011479		 0.00010907		-0.00005342	
O		17.57499948		7.11972109		2.42419923		 0.00011479		 0.00010907		-0.00005342	
O		0.92499997		12.12276844		2.84579942		-0.00011479		-0.00010907		 0.00005342	
O		10.17499970		12.12276844		5.05920040		-0.00011479		-0.00010907		-0.00005342	
O		8.32499976		7.11972109		0.21080009		 0.00011479		 0.00010907		 0.00005342	
O		3.51499990		3.46364760		0.26349919		-0.00039531		 0.00004005		-0.00012541	
O		14.98499956		15.77884009		5.00649945		 0.00039531		-0.00004005		 0.00012541	
O		5.73499983		15.77884009		2.89850036		 0.00039531		-0.00004005		-0.00012541	
O		12.76499963		3.46364760		2.37150013		-0.00039531		 0.00004005		 0.00012541	
O		14.98499956		13.08489237		5.00649945		 0.00039531		 0.00004005		 0.00012541	
O		3.51499990		6.15759532		0.26349919		-0.00039531		-0.00004005		-0.00012541	
O		12.76499963		6.15759532		2.37150013		-0.00039531		-0.00004005		 0.00012541	
O		5.73499983		13.08489237		2.89850036		 0.00039531		 0.00004005		-0.00012541	
O		3.51499990		1.34697386		2.95119946		 0.00008343		 0.00016774		 0.00047010	
O		14.98499956		17.89551382		2.31879918		-0.00008343		-0.00016774		-0.00047010	
O		5.73499983		17.89551382		0.31620014		-0.00008343		-0.00016774		 0.00047010	
O		12.76499963		1.34697386		4.95380035		 0.00008343		 0.00016774		-0.00047010	
O		14.98499956		10.96821863		2.31879918		-0.00008343		 0.00016774		-0.00047010	
O		3.51499990		8.27427091		2.95119946		 0.00008343		-0.00016774		 0.00047010	
O		12.76499963		8.27427091		4.95380035		 0.00008343		-0.00016774		-0.00047010	
O		5.73499983		10.96821863		0.31620014		-0.00008343		 0.00016774		 0.00047010	
O		3.51499990		0.00000000		0.26349919		-0.00007837		 0.00000985		 0.00074421	
O		14.98499956		0.00000000		5.00649945		 0.00007837		-0.00000985		-0.00074421	
O		5.73499983		0.00000000		2.89850036		 0.00007837		-0.00000985		 0.00074421	
O		12.76499963		0.00000000		2.37150013		-0.00007837		 0.00000985		-0.00074421	
O		14.98499956		9.62124477		5.00649945		 0.00007837		 0.00000985		-0.00074421	
O		3.51499990		9.62124477		0.26349919		-0.00007837		-0.00000985		 0.00074421	
O		12.76499963		9.62124477		2.37150013		-0.00007837		-0.00000985		-0.00074421	
O		5.73499983		9.62124477		2.89850036		 0.00007837		 0.00000985		 0.00074421	
O		3.51499990		14.43186623		2.37150013		-0.00027919		0.00000000		 0.00094194	
O		14.98499956		4.81062146		2.89850036		 0.00027919		0.00000000		-0.00094194	
O		5.73499983		4.81062146		5.00649945		 0.00027919		0.00000000		 0.00094194	
O		12.76499963		14.43186623		0.26349919		-0.00027919		0.00000000		-0.00094194	
O		3.51499990		4.81062146		2.89850036		-0.00004612		0.00000000		-0.00020741	
O		14.98499956		14.43186623		2.37150013		 0.00004612		0.00000000		 0.00020741	
O		5.73499983		14.43186623		0.26349919		 0.00004612		-0.00000000		-0.00020741	
O		12.76499963		4.81062146		5.00649945		-0.00004612		-0.00000000		 0.00020741	
O		3.69999989		16.74096586		1.58100070		 0.00000948		-0.00018809		-0.00008326	
O		14.79999957		2.50152368		3.68899979		-0.00000948		 0.00018809		 0.00008326	
O		5.54999984		2.50152368		4.21600003		-0.00000948		 0.00018809		-0.00008326	
O		12.94999962		16.74096586		1.05400047		 0.00000948		-0.00018809		 0.00008326	
O		14.79999957		7.11972109		3.68899979		-0.00000948		-0.00018809		 0.00008326	
O		3.69999989		12.12276844		1.58100070		 0.00000948		 0.00018809		-0.00008326	
O		12.94999962		12.12276844		1.05400047		 0.00000948		 0.00018809		 0.00008326	
O		5.54999984		7.11972109		4.21600003		-0.00000948		-0.00018809		-0.00008326	
O		3.69999989		16.74096586		4.21600003		-0.00013577		 0.00035325		-0.00029244	
O		14.79999957		2.50152368		1.05400047		 0.00013577		-0.00035325		 0.00029244	
O		5.54999984		2.50152368		1.58100070		 0.00013577		-0.00035325		-0.00029244	
O		12.94999962		16.74096586		3.68899979		-0.00013577		 0.00035325		 0.00029244	
O		14.79999957		7.11972109		1.05400047		 0.00013577		 0.00035325		 0.00029244	
O		3.69999989		12.12276844		4.21600003		-0.00013577		-0.00035325		-0.00029244	
O		12.94999962		12.12276844		3.68899979		-0.00013577		-0.00035325		 0.00029244	
O		5.54999984		7.11972109		1.58100070		 0.00013577		 0.00035325		-0.00029244	
H		17.94500132		0.00000000		0.79049943		 0.00082283		-0.00030814		-0.00042431	
H		0.55499813		0.00000000		4.47949922		-0.00082283		 0.00030814		 0.00042431	
H		9.80499786		0.00000000		3.42550060		-0.00082283		 0.00030814		-0.00042431	
H		8.69500159		0.00000000		1.84449990		 0.00082283		-0.00030814		 0.00042431	
H		0.55499813		9.62124477		4.47949922		-0.00082283		-0.00030814		 0.00042431	
H		17.94500132		9.62124477		0.79049943		 0.00082283		 0.00030814		-0.00042431	
H		8.69500159		9.62124477		1.84449990		 0.00082283		 0.00030814		 0.00042431	
H		9.80499786		9.62124477		3.42550060		-0.00082283		-0.00030814		-0.00042431	
