# total energy = -92497.2647058 eV	

CRYSTAL	
PRIMVEC	
		18.49999946		0.00000000		0.00000000	
		0.00000000		18.79498195		0.00000000	
		0.00000000		0.00000000		5.27000235	
PRIMCOORD
   164 1	
Mg		2.40499993		3.19514786		2.00259904		-0.00019063		 0.00029775		-0.00015489	
Mg		16.09499953		15.59983964		3.26739960		 0.00019063		-0.00029775		 0.00015489	
Mg		6.84499980		15.59983964		4.63760021		 0.00019063		-0.00029775		-0.00015489	
Mg		11.65499966		3.19514786		0.63240028		-0.00019063		 0.00029775		 0.00015489	
Mg		16.09499953		12.59264253		3.26739960		 0.00019063		 0.00029775		 0.00015489	
Mg		2.40499993		6.20234497		2.00259904		-0.00019063		-0.00029775		-0.00015489	
Mg		11.65499966		6.20234497		0.63240028		-0.00019063		-0.00029775		 0.00015489	
Mg		6.84499980		12.59264253		4.63760021		 0.00019063		 0.00029775		-0.00015489	
Mg		2.40499993		1.50359856		4.58489927		 0.00026865		-0.00010310		 0.00014499	
Mg		16.09499953		17.29139079		0.68509938		-0.00026865		 0.00010310		-0.00014499	
Mg		6.84499980		17.29139079		1.94989994		-0.00026865		 0.00010310		 0.00014499	
Mg		11.65499966		1.50359856		3.32010055		 0.00026865		-0.00010310		-0.00014499	
Mg		16.09499953		10.90109323		0.68509938		-0.00026865		-0.00010310		-0.00014499	
Mg		2.40499993		7.89389612		4.58489927		 0.00026865		 0.00010310		 0.00014499	
Mg		11.65499966		7.89389612		3.32010055		 0.00026865		 0.00010310		-0.00014499	
Mg		6.84499980		10.90109323		1.94989994		-0.00026865		-0.00010310		 0.00014499	
Mg		2.40499993		18.41908971		2.00259904		 0.00012684		-0.00006840		 0.00018277	
Mg		16.09499953		0.37589964		3.26739960		-0.00012684		 0.00006840		-0.00018277	
Mg		6.84499980		0.37589964		4.63760021		-0.00012684		 0.00006840		 0.00018277	
Mg		11.65499966		18.41908971		0.63240028		 0.00012684		-0.00006840		-0.00018277	
Mg		16.09499953		9.02159504		3.26739960		-0.00012684		-0.00006840		-0.00018277	
Mg		2.40499993		9.77339431		2.00259904		 0.00012684		 0.00006840		 0.00018277	
Mg		11.65499966		9.77339431		0.63240028		 0.00012684		 0.00006840		-0.00018277	
Mg		6.84499980		9.02159504		4.63760021		-0.00012684		-0.00006840		 0.00018277	
Mg		2.40499993		4.69874641		4.58489927		 0.00061215		0.00000000		-0.00030116	
Mg		16.09499953		14.09624109		0.68509938		-0.00061215		0.00000000		 0.00030116	
Mg		6.84499980		14.09624109		1.94989994		-0.00061215		0.00000000		-0.00030116	
Mg		11.65499966		4.69874641		3.32010055		 0.00061215		0.00000000		 0.00030116	
Si		0.55499998		15.41189075		1.52829976		-0.00025219		 0.00000382		-0.00006118	
Si		17.94500132		3.38309860		3.74170074		 0.00025219		-0.00000382		 0.00006118	
Si		8.69499974		3.38309860		4.16329908		 0.00025219		-0.00000382		-0.00006118	
Si		9.80499786		15.41189075		1.10669957		-0.00025219		 0.00000382		 0.00006118	
Si		17.94500132		6.01439607		3.74170074		 0.00025219		 0.00000382		 0.00006118	
Si		0.55499998		12.78059327		1.52829976		-0.00025219		-0.00000382		-0.00006118	
Si		9.80499786		12.78059327		1.10669957		-0.00025219		-0.00000382		 0.00006118	
Si		8.69499974		6.01439607		4.16329908		 0.00025219		 0.00000382		-0.00006118	
Si		0.55499998		17.29139079		4.16329908		 0.00004751		 0.00034236		-0.00001646	
Si		17.94500132		1.50359856		1.10669957		-0.00004751		-0.00034236		 0.00001646	
Si		8.69499974		1.50359856		1.52829976		-0.00004751		-0.00034236		-0.00001646	
Si		9.80499786		17.29139079		3.74170074		 0.00004751		 0.00034236		 0.00001646	
Si		17.94500132		7.89389612		1.10669957		-0.00004751		 0.00034236		 0.00001646	
Si		0.55499998		10.90109323		4.16329908		 0.00004751		-0.00034236		-0.00001646	
Si		9.80499786		10.90109323		3.74170074		 0.00004751		-0.00034236		 0.00001646	
Si		8.69499974		7.89389612		1.52829976		-0.00004751		 0.00034236		-0.00001646	
Si		4.06999988		17.29139079		0.21080009		-0.00015216		 0.00018924		 0.00005287	
Si		14.42999773		1.50359856		5.05920040		 0.00015216		-0.00018924		-0.00005287	
Si		5.17999985		1.50359856		2.84579942		 0.00015216		-0.00018924		 0.00005287	
Si		13.32000146		17.29139079		2.42419923		-0.00015216		 0.00018924		-0.00005287	
Si		14.42999773		7.89389612		5.05920040		 0.00015216		 0.00018924		-0.00005287	
Si		4.06999988		10.90109323		0.21080009		-0.00015216		-0.00018924		 0.00005287	
Si		13.32000146		10.90109323		2.42419923		-0.00015216		-0.00018924		-0.00005287	
Si		5.17999985		7.89389612		2.84579942		 0.00015216		 0.00018924		 0.00005287	
Si		4.06999988		15.41189075		2.84579942		 0.00008132		-0.00001597		 0.00017203	
Si		14.42999773		3.38309860		2.42419923		-0.00008132		 0.00001597		-0.00017203	
Si		5.17999985		3.38309860		0.21080009		-0.00008132		 0.00001597		 0.00017203	
Si		13.32000146		15.41189075		5.05920040		 0.00008132		-0.00001597		-0.00017203	
Si		14.42999773		6.01439607		2.42419923		-0.00008132		-0.00001597		-0.00017203	
Si		4.06999988		12.78059327		2.84579942		 0.00008132		 0.00001597		 0.00017203	
Si		13.32000146		12.78059327		5.05920040		 0.00008132		 0.00001597		-0.00017203	
Si		5.17999985		6.01439607		0.21080009		-0.00008132		-0.00001597		 0.00017203	
O		1.10999997		1.31564966		1.05400047		 0.00028326		 0.00022485		 0.00010862	
O		17.38999949		17.47933969		4.21600003		-0.00028326		-0.00022485		-0.00010862	
O		8.13999976		17.47933969		3.68899979		-0.00028326		-0.00022485		 0.00010862	
O		10.35999970		1.31564966		1.58100070		 0.00028326		 0.00022485		-0.00010862	
O		17.38999949		10.71314434		4.21600003		-0.00028326		 0.00022485		-0.00010862	
O		1.10999997		8.08184501		1.05400047		 0.00028326		-0.00022485		 0.00010862	
O		10.35999970		8.08184501		1.58100070		 0.00028326		-0.00022485		-0.00010862	
O		8.13999976		10.71314434		3.68899979		-0.00028326		 0.00022485		 0.00010862	
O		1.10999997		3.38309860		3.68899979		 0.00072247		 0.00024771		 0.00031850	
O		17.38999949		15.41189075		1.58100070		-0.00072247		-0.00024771		-0.00031850	
O		8.13999976		15.41189075		1.05400047		-0.00072247		-0.00024771		 0.00031850	
O		10.35999970		3.38309860		4.21600003		 0.00072247		 0.00024771		-0.00031850	
O		17.38999949		12.78059327		1.58100070		-0.00072247		 0.00024771		-0.00031850	
O		1.10999997		6.01439607		3.68899979		 0.00072247		-0.00024771		 0.00031850	
O		10.35999970		6.01439607		4.21600003		 0.00072247		-0.00024771		-0.00031850	
O		8.13999976		12.78059327		1.05400047		-0.00072247		 0.00024771		 0.00031850	
O		1.10999997		14.09624109		1.05400047		 0.00028267		0.00000000		 0.00000945	
O		17.38999949		4.69874641		4.21600003		-0.00028267		-0.00000000		-0.00000945	
O		8.13999976		4.69874641		3.68899979		-0.00028267		0.00000000		 0.00000945	
O		10.35999970		14.09624109		1.58100070		 0.00028267		0.00000000		-0.00000945	
O		1.10999997		4.69874641		1.05400047		-0.00074152		0.00000000		-0.00082370	
O		17.38999949		14.09624109		4.21600003		 0.00074152		0.00000000		 0.00082370	
O		8.13999976		14.09624109		3.68899979		 0.00074152		0.00000000		-0.00082370	
O		10.35999970		4.69874641		1.58100070		-0.00074152		0.00000000		 0.00082370	
O		1.10999997		0.00000000		3.68899979		-0.00040533		 0.00074385		 0.00014047	
O		17.38999949		0.00000000		1.58100070		 0.00040533		-0.00074385		-0.00014047	
O		8.13999976		0.00000000		1.05400047		 0.00040533		-0.00074385		 0.00014047	
O		10.35999970		0.00000000		4.21600003		-0.00040533		 0.00074385		-0.00014047	
O		17.38999949		9.39749467		1.58100070		 0.00040533		 0.00074385		-0.00014047	
O		1.10999997		9.39749467		3.68899979		-0.00040533		-0.00074385		 0.00014047	
O		10.35999970		9.39749467		4.21600003		-0.00040533		-0.00074385		-0.00014047	
O		8.13999976		9.39749467		1.05400047		 0.00040533		 0.00074385		 0.00014047	
O		0.92499997		16.35164077		0.26349919		 0.00025394		-0.00024037		-0.00012447	
O		17.57499948		2.44334858		5.00649945		-0.00025394		 0.00024037		 0.00012447	
O		8.32499976		2.44334858		2.89850036		-0.00025394		 0.00024037		-0.00012447	
O		10.17499970		16.35164077		2.37150013		 0.00025394		-0.00024037		 0.00012447	
O		17.57499948		6.95414610		5.00649945		-0.00025394		-0.00024037		 0.00012447	
O		0.92499997		11.84084325		0.26349919		 0.00025394		 0.00024037		-0.00012447	
O		10.17499970		11.84084325		2.37150013		 0.00025394		 0.00024037		 0.00012447	
O		8.32499976		6.95414610		2.89850036		-0.00025394		-0.00024037		-0.00012447	
O		0.92499997		16.35164077		2.84579942		-0.00009665		 0.00006486		 0.00006945	
O		17.57499948		2.44334858		2.42419923		 0.00009665		-0.00006486		-0.00006945	
O		8.32499976		2.44334858		0.21080009		 0.00009665		-0.00006486		 0.00006945	
O		10.17499970		16.35164077		5.05920040		-0.00009665		 0.00006486		-0.00006945	
O		17.57499948		6.95414610		2.42419923		 0.00009665		 0.00006486		-0.00006945	
O		0.92499997		11.84084325		2.84579942		-0.00009665		-0.00006486		 0.00006945	
O		10.17499970		11.84084325		5.05920040		-0.00009665		-0.00006486		-0.00006945	
O		8.32499976		6.95414610		0.21080009		 0.00009665		 0.00006486		 0.00006945	
O		3.51499990		3.38309860		0.26349919		-0.00048512		-0.00008972		-0.00029914	
O		14.98499956		15.41189075		5.00649945		 0.00048512		 0.00008972		 0.00029914	
O		5.73499983		15.41189075		2.89850036		 0.00048512		 0.00008972		-0.00029914	
O		12.76499963		3.38309860		2.37150013		-0.00048512		-0.00008972		 0.00029914	
O		14.98499956		12.78059327		5.00649945		 0.00048512		-0.00008972		 0.00029914	
O		3.51499990		6.01439607		0.26349919		-0.00048512		 0.00008972		-0.00029914	
O		12.76499963		6.01439607		2.37150013		-0.00048512		 0.00008972		 0.00029914	
O		5.73499983		12.78059327		2.89850036		 0.00048512		-0.00008972		-0.00029914	
O		3.51499990		1.31564966		2.95119946		 0.00005526		 0.00037092		 0.00019663	
O		14.98499956		17.47933969		2.31879918		-0.00005526		-0.00037092		-0.00019663	
O		5.73499983		17.47933969		0.31620014		-0.00005526		-0.00037092		 0.00019663	
O		12.76499963		1.31564966		4.95380035		 0.00005526		 0.00037092		-0.00019663	
O		14.98499956		10.71314434		2.31879918		-0.00005526		 0.00037092		-0.00019663	
O		3.51499990		8.08184501		2.95119946		 0.00005526		-0.00037092		 0.00019663	
O		12.76499963		8.08184501		4.95380035		 0.00005526		-0.00037092		-0.00019663	
O		5.73499983		10.71314434		0.31620014		-0.00005526		 0.00037092		 0.00019663	
O		3.51499990		0.00000000		0.26349919		-0.00010359		 0.00031541		 0.00030907	
O		14.98499956		0.00000000		5.00649945		 0.00010359		-0.00031541		-0.00030907	
O		5.73499983		0.00000000		2.89850036		 0.00010359		-0.00031541		 0.00030907	
O		12.76499963		0.00000000		2.37150013		-0.00010359		 0.00031541		-0.00030907	
O		14.98499956		9.39749467		5.00649945		 0.00010359		 0.00031541		-0.00030907	
O		3.51499990		9.39749467		0.26349919		-0.00010359		-0.00031541		 0.00030907	
O		12.76499963		9.39749467		2.37150013		-0.00010359		-0.00031541		-0.00030907	
O		5.73499983		9.39749467		2.89850036		 0.00010359		 0.00031541		 0.00030907	
O		3.51499990		14.09624109		2.37150013		-0.00074071		0.00000000		 0.00047724	
O		14.98499956		4.69874641		2.89850036		 0.00074071		0.00000000		-0.00047724	
O		5.73499983		4.69874641		5.00649945		 0.00074071		0.00000000		 0.00047724	
O		12.76499963		14.09624109		0.26349919		-0.00074071		0.00000000		-0.00047724	
O		3.51499990		4.69874641		2.89850036		 0.00054205		0.00000000		 0.00017515	
O		14.98499956		14.09624109		2.37150013		-0.00054205		0.00000000		-0.00017515	
O		5.73499983		14.09624109		0.26349919		-0.00054205		0.00000000		 0.00017515	
O		12.76499963		4.69874641		5.00649945		 0.00054205		0.00000000		-0.00017515	
O		3.69999989		16.35164077		1.58100070		-0.00007309		-0.00009796		-0.00000876	
O		14.79999957		2.44334858		3.68899979		 0.00007309		 0.00009796		 0.00000876	
O		5.54999984		2.44334858		4.21600003		 0.00007309		 0.00009796		-0.00000876	
O		12.94999962		16.35164077		1.05400047		-0.00007309		-0.00009796		 0.00000876	
O		14.79999957		6.95414610		3.68899979		 0.00007309		-0.00009796		 0.00000876	
O		3.69999989		11.84084325		1.58100070		-0.00007309		 0.00009796		-0.00000876	
O		12.94999962		11.84084325		1.05400047		-0.00007309		 0.00009796		 0.00000876	
O		5.54999984		6.95414610		4.21600003		 0.00007309		-0.00009796		-0.00000876	
O		3.69999989		16.35164077		4.21600003		-0.00034219		 0.00016545		 0.00016548	
O		14.79999957		2.44334858		1.05400047		 0.00034219		-0.00016545		-0.00016548	
O		5.54999984		2.44334858		1.58100070		 0.00034219		-0.00016545		 0.00016548	
O		12.94999962		16.35164077		3.68899979		-0.00034219		 0.00016545		-0.00016548	
O		14.79999957		6.95414610		1.05400047		 0.00034219		 0.00016545		-0.00016548	
O		3.69999989		11.84084325		4.21600003		-0.00034219		-0.00016545		 0.00016548	
O		12.94999962		11.84084325		3.68899979		-0.00034219		-0.00016545		-0.00016548	
O		5.54999984		6.95414610		1.58100070		 0.00034219		 0.00016545		 0.00016548	
H		17.94500132		0.00000000		0.79049943		 0.00015767		 0.00033088		-0.00011650	
H		0.55499813		0.00000000		4.47949922		-0.00015767		-0.00033088		 0.00011650	
H		9.80499786		0.00000000		3.42550060		-0.00015767		-0.00033088		-0.00011650	
H		8.69500159		0.00000000		1.84449990		 0.00015767		 0.00033088		 0.00011650	
H		0.55499813		9.39749467		4.47949922		-0.00015767		 0.00033088		 0.00011650	
H		17.94500132		9.39749467		0.79049943		 0.00015767		-0.00033088		-0.00011650	
H		8.69500159		9.39749467		1.84449990		 0.00015767		-0.00033088		 0.00011650	
H		9.80499786		9.39749467		3.42550060		-0.00015767		 0.00033088		-0.00011650	
