# total energy = -49443.9537773 eV	

CRYSTAL	
PRIMVEC	
		14.02399962		0.00000000		0.00000000	
		0.00000000		5.10899916		0.00000000	
		0.00000000		0.00000000		8.07802012	
PRIMCOORD
   70 1	
Mg		2.42755433		1.67524108		0.04281387		-0.00032802		-0.00013985		 0.00006378	
Mg		11.59644529		3.43375948		0.04281387		 0.00032802		 0.00013985		 0.00006378	
Mg		9.43955414		0.87925850		4.08182533		-0.00032802		 0.00013985		 0.00006378	
Mg		4.58444548		4.22974066		4.08182533		 0.00032802		-0.00013985		 0.00006378	
Mg		2.48925993		4.27010173		1.41526979		 0.00063360		-0.00020354		-0.00001218	
Mg		11.53473969		0.83889743		1.41526979		-0.00063360		 0.00020354		-0.00001218	
Mg		9.50125974		3.39339841		5.45428125		 0.00063360		 0.00020354		-0.00001218	
Mg		4.52273988		1.71560215		5.45428125		-0.00063360		-0.00020354		-0.00001218	
Mg		4.54377588		1.76822441		2.61889638		 0.00008542		-0.00022925		-0.00040589	
Mg		9.48022374		3.34077475		2.61889638		-0.00008542		 0.00022925		-0.00040589	
Mg		11.55577569		0.78627517		6.65790784		 0.00008542		 0.00022925		-0.00040589	
Mg		2.46822393		4.32272539		6.65790784		-0.00008542		-0.00022925		-0.00040589	
Mg		0.00000000		2.55449958		6.69345027		0.00000000		0.00000000		-0.00067415	
Mg		7.01199981		0.00000000		2.65443881		0.00000000		0.00000000		-0.00067415	
Mg		0.00000000		2.55449958		1.51059091		0.00000000		0.00000000		 0.00055651	
Mg		7.01199981		0.00000000		5.54960237		0.00000000		0.00000000		 0.00055651	
Mg		0.00000000		0.00000000		5.35169148		0.00000000		0.00000000		 0.00000225	
Mg		7.01199981		2.55449958		1.31267862		0.00000000		0.00000000		 0.00000225	
Mg		0.00000000		0.00000000		2.79095824		0.00000000		0.00000000		 0.00012741	
Mg		7.01199981		2.55449958		6.82996970		0.00000000		0.00000000		 0.00012741	
Si		0.00000000		0.00000000		0.06220065		0.00000000		0.00000000		 0.00003443	
Si		7.01199981		2.55449958		4.10121351		0.00000000		0.00000000		 0.00003443	
Si		5.28143826		0.07203708		0.04119830		-0.00027826		-0.00016503		-0.00028161	
Si		8.74256136		5.03696348		0.04119830		 0.00027826		 0.00016503		-0.00028161	
Si		12.29343807		2.48246250		4.08020976		-0.00027826		 0.00016503		-0.00028161	
Si		1.73056155		2.62653666		4.08020976		 0.00027826		-0.00016503		-0.00028161	
O		5.82416704		3.62125895		8.02632625		-0.00008194		 0.00019208		-0.00024936	
O		8.19983258		1.48774161		8.02632625		 0.00008194		-0.00019208		-0.00024936	
O		12.83616825		4.04224119		3.98731339		-0.00008194		-0.00019208		-0.00024936	
O		1.18783277		1.06675937		3.98731339		 0.00008194		 0.00019208		-0.00024936	
O		1.09807917		3.54104728		0.04039052		-0.00038236		 0.00004776		-0.00003967	
O		12.92592045		1.56795188		0.04039052		 0.00038236		-0.00004776		-0.00003967	
O		8.11007898		4.12245145		4.07940198		-0.00038236		-0.00004776		-0.00003967	
O		5.91392064		0.98654770		4.07940198		 0.00038236		 0.00004776		-0.00003967	
O		3.49898791		0.11239815		2.78772570		 0.00052760		-0.00065378		 0.00016963	
O		10.52501171		4.99660241		2.78772570		-0.00052760		 0.00065378		 0.00016963	
O		10.51098912		2.44210143		6.82673857		 0.00052760		 0.00065378		 0.00016963	
O		3.51301190		2.66689773		6.82673857		-0.00052760		-0.00065378		 0.00016963	
O		3.57892470		2.61580830		1.30863971		-0.00018296		-0.00012528		 0.00024031	
O		10.44507492		2.49319226		1.30863971		 0.00018296		 0.00012528		 0.00024031	
O		10.59092451		5.04769184		5.34765117		-0.00018296		 0.00012528		 0.00024031	
O		3.43307511		0.06130732		5.34765117		 0.00018296		-0.00012528		 0.00024031	
O		1.06582397		0.73569622		1.23674567		 0.00002609		-0.00015886		-0.00006311	
O		12.95817705		4.37330434		1.23674567		-0.00002609		 0.00015886		-0.00006311	
O		8.07782378		1.81880336		5.27575854		 0.00002609		 0.00015886		-0.00006311	
O		5.94617584		3.29019579		5.27575854		-0.00002609		-0.00015886		-0.00006311	
O		6.02751504		3.30552262		2.92343735		-0.00035033		-0.00023623		-0.00030845	
O		7.99648318		1.80347653		2.92343735		 0.00035033		 0.00023623		-0.00030845	
O		13.03951625		4.35797752		6.96244881		-0.00035033		 0.00023623		-0.00030845	
O		0.98448477		0.75102304		6.96244881		 0.00035033		-0.00023623		-0.00030845	
O		5.81294784		0.78167670		1.29167628		-0.00008755		 0.00000403		-0.00030796	
O		8.21105178		4.32732245		1.29167628		 0.00008755		-0.00000403		-0.00030796	
O		12.82494765		1.77282288		5.33068914		-0.00008755		-0.00000403		-0.00030796	
O		1.19905197		3.33617628		5.33068914		 0.00008755		 0.00000403		-0.00030796	
O		1.24673357		3.49966526		2.81034501		-0.00017973		 0.00027187		 0.00030173	
O		12.77726605		1.60933530		2.81034501		 0.00017973		-0.00027187		 0.00030173	
O		8.25873338		4.16383487		6.84935788		-0.00017973		-0.00027187		 0.00030173	
O		5.76526624		0.94516428		6.84935788		 0.00017973		 0.00027187		 0.00030173	
O		3.64343510		0.02452237		0.05654617		-0.00013804		-0.00025726		 0.00028546	
O		10.38056592		5.08447679		0.05654617		 0.00013804		 0.00025726		 0.00028546	
O		10.65543491		2.52997721		4.09555903		-0.00013804		 0.00025726		 0.00028546	
O		3.36856471		2.57902335		4.09555903		 0.00013804		-0.00025726		 0.00028546	
H		4.20719989		3.06539949		0.80780201		 0.00007766		-0.00006925		 0.00015258	
H		9.81679973		2.04359966		0.80780201		-0.00007766		 0.00006925		 0.00015258	
H		11.21919970		4.59809924		4.84681488		 0.00007766		 0.00006925		 0.00015258	
H		2.80479992		0.51089992		4.84681488		-0.00007766		-0.00006925		 0.00015258	
H		3.78647990		0.91961957		3.63511046		-0.00030515		-0.00023733		 0.00043152	
H		10.23751972		4.18937959		3.63511046		 0.00030515		 0.00023733		 0.00043152	
H		10.79847971		1.63488001		7.67412332		-0.00030515		 0.00023733		 0.00043152	
H		3.22551991		3.47412055		7.67412332		 0.00030515		-0.00023733		 0.00043152	
