# total energy = -49446.1205979 eV	

CRYSTAL	
PRIMVEC	
		14.02399962		0.00000000		0.00000000	
		0.00000000		5.10899916		0.00000000	
		0.00000000		0.00000000		9.38797387	
PRIMCOORD
   70 1	
Mg		2.42755433		1.67524108		0.04975575		 0.00010673		 0.00040942		 0.00017086	
Mg		11.59644529		3.43375948		0.04975575		-0.00010673		-0.00040942		 0.00017086	
Mg		9.43955414		0.87925850		4.74374409		 0.00010673		-0.00040942		 0.00017086	
Mg		4.58444548		4.22974066		4.74374409		-0.00010673		 0.00040942		 0.00017086	
Mg		2.48925993		4.27010173		1.64477254		-0.00024275		-0.00006923		 0.00024460	
Mg		11.53473969		0.83889743		1.64477254		 0.00024275		 0.00006923		 0.00024460	
Mg		9.50125974		3.39339841		6.33875948		-0.00024275		 0.00006923		 0.00024460	
Mg		4.52273988		1.71560215		6.33875948		 0.00024275		-0.00006923		 0.00024460	
Mg		4.54377588		1.76822441		3.04358096		 0.00012206		-0.00012248		-0.00056317	
Mg		9.48022374		3.34077475		3.04358096		-0.00012206		 0.00012248		-0.00056317	
Mg		11.55577569		0.78627517		7.73756930		 0.00012206		 0.00012248		-0.00056317	
Mg		2.46822393		4.32272539		7.73756930		-0.00012206		-0.00012248		-0.00056317	
Mg		0.00000000		2.55449958		7.77887558		0.00000000		0.00000000		 0.00006612	
Mg		7.01199981		0.00000000		3.08488724		0.00000000		0.00000000		 0.00006612	
Mg		0.00000000		2.55449958		1.75555092		0.00000000		0.00000000		-0.00053340	
Mg		7.01199981		0.00000000		6.44953926		0.00000000		0.00000000		-0.00053340	
Mg		0.00000000		0.00000000		6.21953444		0.00000000		0.00000000		-0.00004507	
Mg		7.01199981		2.55449958		1.52554611		0.00000000		0.00000000		-0.00004507	
Mg		0.00000000		0.00000000		3.24354496		0.00000000		0.00000000		 0.00083414	
Mg		7.01199981		2.55449958		7.93753330		0.00000000		0.00000000		 0.00083414	
Si		0.00000000		0.00000000		0.07228671		0.00000000		0.00000000		 0.00058860	
Si		7.01199981		2.55449958		4.76627505		0.00000000		0.00000000		 0.00058860	
Si		5.28143826		0.07203708		0.04787934		 0.00010073		-0.00002592		 0.00017245	
Si		8.74256136		5.03696348		0.04787934		-0.00010073		 0.00002592		 0.00017245	
Si		12.29343807		2.48246250		4.74186627		 0.00010073		 0.00002592		 0.00017245	
Si		1.73056155		2.62653666		4.74186627		-0.00010073		-0.00002592		 0.00017245	
O		5.82416704		3.62125895		9.32789225		 0.00018488		-0.00014374		-0.00019107	
O		8.19983258		1.48774161		9.32789225		-0.00018488		 0.00014374		-0.00019107	
O		12.83616825		4.04224119		4.63390392		 0.00018488		 0.00014374		-0.00019107	
O		1.18783277		1.06675937		4.63390392		-0.00018488		-0.00014374		-0.00019107	
O		1.09807917		3.54104728		0.04693973		 0.00005611		-0.00010905		-0.00027213	
O		12.92592045		1.56795188		0.04693973		-0.00005611		 0.00010905		-0.00027213	
O		8.11007898		4.12245145		4.74092667		 0.00005611		 0.00010905		-0.00027213	
O		5.91392064		0.98654770		4.74092667		-0.00005611		-0.00010905		-0.00027213	
O		3.49898791		0.11239815		3.23978933		 0.00063711		-0.00052242		-0.00019026	
O		10.52501171		4.99660241		3.23978933		-0.00063711		 0.00052242		-0.00019026	
O		10.51098912		2.44210143		7.93377627		 0.00063711		 0.00052242		-0.00019026	
O		3.51301190		2.66689773		7.93377627		-0.00063711		-0.00052242		-0.00019026	
O		3.57892470		2.61580830		1.52085227		-0.00016235		-0.00025775		 0.00021981	
O		10.44507492		2.49319226		1.52085227		 0.00016235		 0.00025775		 0.00021981	
O		10.59092451		5.04769184		6.21483921		-0.00016235		 0.00025775		 0.00021981	
O		3.43307511		0.06130732		6.21483921		 0.00016235		-0.00025775		 0.00021981	
O		1.06582397		0.73569622		1.43729869		 0.00011212		 0.00005523		-0.00027921	
O		12.95817705		4.37330434		1.43729869		-0.00011212		-0.00005523		-0.00027921	
O		8.07782378		1.81880336		6.13128562		 0.00011212		-0.00005523		-0.00027921	
O		5.94617584		3.29019579		6.13128562		-0.00011212		 0.00005523		-0.00027921	
O		6.02751504		3.30552262		3.39750744		-0.00032183		-0.00020552		-0.00019898	
O		7.99648318		1.80347653		3.39750744		 0.00032183		 0.00020552		-0.00019898	
O		13.03951625		4.35797752		8.09149438		-0.00032183		 0.00020552		-0.00019898	
O		0.98448477		0.75102304		8.09149438		 0.00032183		-0.00020552		-0.00019898	
O		5.81294784		0.78167670		1.50113733		-0.00007173		 0.00010730		 0.00008198	
O		8.21105178		4.32732245		1.50113733		 0.00007173		-0.00010730		 0.00008198	
O		12.82494765		1.77282288		6.19512427		-0.00007173		-0.00010730		 0.00008198	
O		1.19905197		3.33617628		6.19512427		 0.00007173		 0.00010730		 0.00008198	
O		1.24673357		3.49966526		3.26607592		 0.00002710		 0.00010283		 0.00000739	
O		12.77726605		1.60933530		3.26607592		-0.00002710		-0.00010283		 0.00000739	
O		8.25873338		4.16383487		7.96006426		 0.00002710		-0.00010283		 0.00000739	
O		5.76526624		0.94516428		7.96006426		-0.00002710		 0.00010283		 0.00000739	
O		3.64343510		0.02452237		0.06571646		-0.00002150		 0.00000783		 0.00029921	
O		10.38056592		5.08447679		0.06571646		 0.00002150		-0.00000783		 0.00029921	
O		10.65543491		2.52997721		4.75970340		-0.00002150		-0.00000783		 0.00029921	
O		3.36856471		2.57902335		4.75970340		 0.00002150		 0.00000783		 0.00029921	
H		4.20719989		3.06539949		0.93879739		-0.00021695		-0.00001410		-0.00001185	
H		9.81679973		2.04359966		0.93879739		 0.00021695		 0.00001410		-0.00001185	
H		11.21919970		4.59809924		5.63278432		-0.00021695		 0.00001410		-0.00001185	
H		2.80479992		0.51089992		5.63278432		 0.00021695		-0.00001410		-0.00001185	
H		3.78647990		0.91961957		4.22458824		-0.00053808		-0.00002943		 0.00005516	
H		10.23751972		4.18937959		4.22458824		 0.00053808		 0.00002943		 0.00005516	
H		10.79847971		1.63488001		8.91857518		-0.00053808		 0.00002943		 0.00005516	
H		3.22551991		3.47412055		8.91857518		 0.00053808		-0.00002943		 0.00005516	
