# total energy = -49447.5848188 eV	

CRYSTAL	
PRIMVEC	
		14.02399962		0.00000000		0.00000000	
		0.00000000		5.10899916		0.00000000	
		0.00000000		0.00000000		8.51467137	
PRIMCOORD
   70 1	
Mg		2.42755433		1.67524108		0.04512783		-0.00011610		 0.00071417		-0.00065402	
Mg		11.59644529		3.43375948		0.04512783		 0.00011610		-0.00071417		-0.00065402	
Mg		9.43955414		0.87925850		4.30246492		-0.00011610		-0.00071417		-0.00065402	
Mg		4.58444548		4.22974066		4.30246492		 0.00011610		 0.00071417		-0.00065402	
Mg		2.48925993		4.27010173		1.49177070		-0.00088329		-0.00047874		-0.00002109	
Mg		11.53473969		0.83889743		1.49177070		 0.00088329		 0.00047874		-0.00002109	
Mg		9.50125974		3.39339841		5.74910779		-0.00088329		 0.00047874		-0.00002109	
Mg		4.52273988		1.71560215		5.74910779		 0.00088329		-0.00047874		-0.00002109	
Mg		4.54377588		1.76822441		2.76045744		 0.00045317		-0.00073258		 0.00016173	
Mg		9.48022374		3.34077475		2.76045744		-0.00045317		 0.00073258		 0.00016173	
Mg		11.55577569		0.78627517		7.01779453		 0.00045317		 0.00073258		 0.00016173	
Mg		2.46822393		4.32272539		7.01779453		-0.00045317		-0.00073258		 0.00016173	
Mg		0.00000000		2.55449958		7.05525824		0.00000000		0.00000000		 0.00006602	
Mg		7.01199981		0.00000000		2.79792255		0.00000000		0.00000000		 0.00006602	
Mg		0.00000000		2.55449958		1.59224425		0.00000000		0.00000000		 0.00006920	
Mg		7.01199981		0.00000000		5.84958133		0.00000000		0.00000000		 0.00006920	
Mg		0.00000000		0.00000000		5.64097154		0.00000000		0.00000000		-0.00091447	
Mg		7.01199981		2.55449958		1.38363445		0.00000000		0.00000000		-0.00091447	
Mg		0.00000000		0.00000000		2.94182001		0.00000000		0.00000000		-0.00000961	
Mg		7.01199981		2.55449958		7.19915710		0.00000000		0.00000000		-0.00000961	
Si		0.00000000		0.00000000		0.06556360		0.00000000		0.00000000		-0.00012895	
Si		7.01199981		2.55449958		4.32290069		0.00000000		0.00000000		-0.00012895	
Si		5.28143826		0.07203708		0.04342531		-0.00001054		-0.00002014		-0.00019582	
Si		8.74256136		5.03696348		0.04342531		 0.00001054		 0.00002014		-0.00019582	
Si		12.29343807		2.48246250		4.30076240		-0.00001054		 0.00002014		-0.00019582	
Si		1.73056155		2.62653666		4.30076240		 0.00001054		-0.00002014		-0.00019582	
O		5.82416704		3.62125895		8.46018112		-0.00031350		-0.00022546		 0.00023479	
O		8.19983258		1.48774161		8.46018112		 0.00031350		 0.00022546		 0.00023479	
O		12.83616825		4.04224119		4.20284403		-0.00031350		 0.00022546		 0.00023479	
O		1.18783277		1.06675937		4.20284403		 0.00031350		-0.00022546		 0.00023479	
O		1.09807917		3.54104728		0.04257266		-0.00004166		-0.00037587		-0.00035475	
O		12.92592045		1.56795188		0.04257266		 0.00004166		 0.00037587		-0.00035475	
O		8.11007898		4.12245145		4.29991115		-0.00004166		 0.00037587		-0.00035475	
O		5.91392064		0.98654770		4.29991115		 0.00004166		-0.00037587		-0.00035475	
O		3.49898791		0.11239815		2.93841358		 0.00034939		-0.00057453		 0.00076638	
O		10.52501171		4.99660241		2.93841358		-0.00034939		 0.00057453		 0.00076638	
O		10.51098912		2.44210143		7.19575207		 0.00034939		 0.00057453		 0.00076638	
O		3.51301190		2.66689773		7.19575207		-0.00034939		-0.00057453		 0.00076638	
O		3.57892470		2.61580830		1.37937676		-0.00016669		-0.00046859		 0.00069832	
O		10.44507492		2.49319226		1.37937676		 0.00016669		 0.00046859		 0.00069832	
O		10.59092451		5.04769184		5.63671525		-0.00016669		 0.00046859		 0.00069832	
O		3.43307511		0.06130732		5.63671525		 0.00016669		-0.00046859		 0.00069832	
O		1.06582397		0.73569622		1.30359668		-0.00010619		 0.00008080		-0.00007221	
O		12.95817705		4.37330434		1.30359668		 0.00010619		-0.00008080		-0.00007221	
O		8.07782378		1.81880336		5.56093376		-0.00010619		-0.00008080		-0.00007221	
O		5.94617584		3.29019579		5.56093376		 0.00010619		 0.00008080		-0.00007221	
O		6.02751504		3.30552262		3.08146118		-0.00055610		 0.00056433		 0.00039982	
O		7.99648318		1.80347653		3.08146118		 0.00055610		-0.00056433		 0.00039982	
O		13.03951625		4.35797752		7.33879827		-0.00055610		-0.00056433		 0.00039982	
O		0.98448477		0.75102304		7.33879827		 0.00055610		 0.00056433		 0.00039982	
O		5.81294784		0.78167670		1.36149616		 0.00032206		 0.00001719		-0.00007879	
O		8.21105178		4.32732245		1.36149616		-0.00032206		-0.00001719		-0.00007879	
O		12.82494765		1.77282288		5.61883325		 0.00032206		-0.00001719		-0.00007879	
O		1.19905197		3.33617628		5.61883325		-0.00032206		 0.00001719		-0.00007879	
O		1.24673357		3.49966526		2.96225438		 0.00011855		-0.00011570		-0.00056204	
O		12.77726605		1.60933530		2.96225438		-0.00011855		 0.00011570		-0.00056204	
O		8.25873338		4.16383487		7.21959287		 0.00011855		 0.00011570		-0.00056204	
O		5.76526624		0.94516428		7.21959287		-0.00011855		-0.00011570		-0.00056204	
O		3.64343510		0.02452237		0.05960340		 0.00006953		-0.00037324		-0.00043600	
O		10.38056592		5.08447679		0.05960340		-0.00006953		 0.00037324		-0.00043600	
O		10.65543491		2.52997721		4.31694049		 0.00006953		 0.00037324		-0.00043600	
O		3.36856471		2.57902335		4.31694049		-0.00006953		-0.00037324		-0.00043600	
H		4.20719989		3.06539949		0.85146714		-0.00023044		-0.00032890		 0.00047675	
H		9.81679973		2.04359966		0.85146714		 0.00023044		 0.00032890		 0.00047675	
H		11.21919970		4.59809924		5.10880422		-0.00023044		 0.00032890		 0.00047675	
H		2.80479992		0.51089992		5.10880422		 0.00023044		-0.00032890		 0.00047675	
H		3.78647990		0.91961957		3.83160352		 0.00040038		-0.00065794		 0.00009586	
H		10.23751972		4.18937959		3.83160352		-0.00040038		 0.00065794		 0.00009586	
H		10.79847971		1.63488001		8.08894061		 0.00040038		 0.00065794		 0.00009586	
H		3.22551991		3.47412055		8.08894061		-0.00040038		-0.00065794		 0.00009586	
