# total energy = -49447.9824118 eV	

CRYSTAL	
PRIMVEC	
		14.02399962		0.00000000		0.00000000	
		0.00000000		5.10899916		0.00000000	
		0.00000000		0.00000000		8.95132262	
PRIMCOORD
   70 1	
Mg		2.42755433		1.67524108		0.04744179		 0.00011754		 0.00055547		-0.00022571	
Mg		11.59644529		3.43375948		0.04744179		-0.00011754		-0.00055547		-0.00022571	
Mg		9.43955414		0.87925850		4.52310450		 0.00011754		-0.00055547		-0.00022571	
Mg		4.58444548		4.22974066		4.52310450		-0.00011754		 0.00055547		-0.00022571	
Mg		2.48925993		4.27010173		1.56827162		-0.00008503		-0.00042525		 0.00020169	
Mg		11.53473969		0.83889743		1.56827162		 0.00008503		 0.00042525		 0.00020169	
Mg		9.50125974		3.39339841		6.04393434		-0.00008503		 0.00042525		 0.00020169	
Mg		4.52273988		1.71560215		6.04393434		 0.00008503		-0.00042525		 0.00020169	
Mg		4.54377588		1.76822441		2.90201990		 0.00000289		-0.00061543		-0.00006688	
Mg		9.48022374		3.34077475		2.90201990		-0.00000289		 0.00061543		-0.00006688	
Mg		11.55577569		0.78627517		7.37768121		 0.00000289		 0.00061543		-0.00006688	
Mg		2.46822393		4.32272539		7.37768121		-0.00000289		-0.00061543		-0.00006688	
Mg		0.00000000		2.55449958		7.41706761		0.00000000		0.00000000		-0.00015788	
Mg		7.01199981		0.00000000		2.94140490		0.00000000		0.00000000		-0.00015788	
Mg		0.00000000		2.55449958		1.67389758		0.00000000		0.00000000		-0.00044909	
Mg		7.01199981		0.00000000		6.14956030		0.00000000		0.00000000		-0.00044909	
Mg		0.00000000		0.00000000		5.93025299		0.00000000		0.00000000		-0.00034470	
Mg		7.01199981		2.55449958		1.45459028		0.00000000		0.00000000		-0.00034470	
Mg		0.00000000		0.00000000		3.09268319		0.00000000		0.00000000		 0.00079963	
Mg		7.01199981		2.55449958		7.56834450		0.00000000		0.00000000		 0.00079963	
Si		0.00000000		0.00000000		0.06892515		0.00000000		0.00000000		-0.00038511	
Si		7.01199981		2.55449958		4.54458787		0.00000000		0.00000000		-0.00038511	
Si		5.28143826		0.07203708		0.04565233		-0.00017244		-0.00020874		-0.00020014	
Si		8.74256136		5.03696348		0.04565233		 0.00017244		 0.00020874		-0.00020014	
Si		12.29343807		2.48246250		4.52131364		-0.00017244		 0.00020874		-0.00020014	
Si		1.73056155		2.62653666		4.52131364		 0.00017244		-0.00020874		-0.00020014	
O		5.82416704		3.62125895		8.89403599		-0.00011101		-0.00020794		 0.00011676	
O		8.19983258		1.48774161		8.89403599		 0.00011101		 0.00020794		 0.00011676	
O		12.83616825		4.04224119		4.41837327		-0.00011101		 0.00020794		 0.00011676	
O		1.18783277		1.06675937		4.41837327		 0.00011101		-0.00020794		 0.00011676	
O		1.09807917		3.54104728		0.04475759		-0.00008707		-0.00053125		-0.00005136	
O		12.92592045		1.56795188		0.04475759		 0.00008707		 0.00053125		-0.00005136	
O		8.11007898		4.12245145		4.52041891		-0.00008707		 0.00053125		-0.00005136	
O		5.91392064		0.98654770		4.52041891		 0.00008707		-0.00053125		-0.00005136	
O		3.49898791		0.11239815		3.08910146		-0.00035157		-0.00035648		-0.00013512	
O		10.52501171		4.99660241		3.08910146		 0.00035157		 0.00035648		-0.00013512	
O		10.51098912		2.44210143		7.56476417		-0.00035157		 0.00035648		-0.00013512	
O		3.51301190		2.66689773		7.56476417		 0.00035157		-0.00035648		-0.00013512	
O		3.57892470		2.61580830		1.45011522		-0.00011326		-0.00040196		 0.00068798	
O		10.44507492		2.49319226		1.45011522		 0.00011326		 0.00040196		 0.00068798	
O		10.59092451		5.04769184		5.92577653		-0.00011326		 0.00040196		 0.00068798	
O		3.43307511		0.06130732		5.92577653		 0.00011326		-0.00040196		 0.00068798	
O		1.06582397		0.73569622		1.37044768		 0.00038524		 0.00022240		-0.00003163	
O		12.95817705		4.37330434		1.37044768		-0.00038524		-0.00022240		-0.00003163	
O		8.07782378		1.81880336		5.84611039		 0.00038524		-0.00022240		-0.00003163	
O		5.94617584		3.29019579		5.84611039		-0.00038524		 0.00022240		-0.00003163	
O		6.02751504		3.30552262		3.23948361		-0.00020749		 0.00056159		 0.00007619	
O		7.99648318		1.80347653		3.23948361		 0.00020749		-0.00056159		 0.00007619	
O		13.03951625		4.35797752		7.71514632		-0.00020749		-0.00056159		 0.00007619	
O		0.98448477		0.75102304		7.71514632		 0.00020749		 0.00056159		 0.00007619	
O		5.81294784		0.78167670		1.43131745		 0.00014291		-0.00015733		-0.00018422	
O		8.21105178		4.32732245		1.43131745		-0.00014291		 0.00015733		-0.00018422	
O		12.82494765		1.77282288		5.90697876		 0.00014291		 0.00015733		-0.00018422	
O		1.19905197		3.33617628		5.90697876		-0.00014291		-0.00015733		-0.00018422	
O		1.24673357		3.49966526		3.11416655		 0.00007800		-0.00014270		-0.00019659	
O		12.77726605		1.60933530		3.11416655		-0.00007800		 0.00014270		-0.00019659	
O		8.25873338		4.16383487		7.58982926		 0.00007800		 0.00014270		-0.00019659	
O		5.76526624		0.94516428		7.58982926		-0.00007800		-0.00014270		-0.00019659	
O		3.64343510		0.02452237		0.06265923		 0.00024726		 0.00003805		 0.00022390	
O		10.38056592		5.08447679		0.06265923		-0.00024726		-0.00003805		 0.00022390	
O		10.65543491		2.52997721		4.53832194		 0.00024726		-0.00003805		 0.00022390	
O		3.36856471		2.57902335		4.53832194		-0.00024726		 0.00003805		 0.00022390	
H		4.20719989		3.06539949		0.89513226		-0.00038958		-0.00009157		 0.00033115	
H		9.81679973		2.04359966		0.89513226		 0.00038958		 0.00009157		 0.00033115	
H		11.21919970		4.59809924		5.37079498		-0.00038958		 0.00009157		 0.00033115	
H		2.80479992		0.51089992		5.37079498		 0.00038958		-0.00009157		 0.00033115	
H		3.78647990		0.91961957		4.02809658		 0.00067100		-0.00069865		-0.00027746	
H		10.23751972		4.18937959		4.02809658		-0.00067100		 0.00069865		-0.00027746	
H		10.79847971		1.63488001		8.50375789		 0.00067100		 0.00069865		-0.00027746	
H		3.22551991		3.47412055		8.50375789		-0.00067100		-0.00069865		-0.00027746	
