# total energy = -24713.1914003 eV

CRYSTAL
PRIMVEC
		11.27967216		0.00003845		-0.80790879
		0.00002884		10.95558000		0.00002884
		-2.29207263		0.00000961		5.11220216
PRIMECORD
   40 1
Mg		2.24740554		5.52319059		1.07702073		 0.00012688		 0.00035050		-0.00040571
Mg		6.74022090		5.43243748		3.22729860		-0.00012610		-0.00035161		 0.00040537
Mg		7.88624568		0.04541981		0.67118406		-0.00014226		 0.00053309		 0.00040546
Mg		1.10138076		10.91020633		3.63313527		 0.00014271		-0.00053180		-0.00040570
Mg		2.24613659		0.04903921		1.07588252		-0.00011473		-0.00008318		-0.00010474
Mg		6.74148985		10.90658501		3.22843681		 0.00011486		 0.00008800		 0.00010498
Mg		7.88751367		5.52684459		0.67231362		 0.00011068		-0.00038686		 0.00011756
Mg		1.10011373		5.42878636		3.63200571		-0.00011053		 0.00038172		-0.00011699
Si		-0.57118971		3.65546113		1.27481183		 0.00015892		 0.00007922		 0.00000148
Si		9.55870560		7.30017655		3.02950174		 0.00013849		-0.00010354		 0.00007334
Si		10.70469481		9.13328670		0.47340930		 0.00027057		 0.00007776		 0.00007646
Si		-1.71719046		1.82232887		3.83090330		 0.00005235		-0.00005449		 0.00000066
Si		5.06617671		9.13318095		0.87660617		-0.00026279		-0.00001453		-0.00020222
Si		3.92157470		1.82244231		3.42771797		-0.00006463		 0.00002664		 0.00012670
Si		5.06753219		3.65541499		0.87163611		 0.00013648		-0.00006968		 0.00011755
Si		3.92020961		7.30021789		3.43268995		-0.00043904		 0.00005849		-0.00019031
O		9.46502525		4.57440510		-0.11649552		-0.00007185		-0.00018097		-0.00034322
O		-0.47734017		6.38117778		4.42082735		-0.00008248		 0.00028392		 0.00027657
O		0.66873268		10.05223067		1.86473108		-0.00014119		-0.00030869		 0.00025873
O		8.31895625		0.90344546		2.43960075		-0.00002519		 0.00019745		-0.00032916
O		0.67015448		4.57379754		1.86381493		-0.00033954		-0.00025139		 0.00034709
O		8.31752291		6.38186705		2.44051497		 0.00020653		 0.00016961		-0.00040535
O		9.46356403		-0.90402226		-0.11559284		 0.00014697		-0.00011395		-0.00042396
O		-0.47588280		11.85960898		4.41992371		-0.00029264		 0.00020407		 0.00036172
O		-1.14103261		2.73283143		2.54983227		-0.00035449		 0.00028863		-0.00001549
O		10.12868404		8.22281106		1.75447264		 0.00029692		-0.00032559		 0.00005269
O		8.98264773		8.21063489		4.31056411		 0.00028425		 0.00033062		 0.00007953
O		0.00500371		2.74497491		-0.00625920		-0.00034254		-0.00029239		-0.00004081
O		3.82562946		10.05369189		0.28919310		 0.00014207		 0.00002702		-0.00024449
O		5.16193738		0.90198328		4.01511373		 0.00001931		-0.00013380		 0.00031356
O		6.30802657		4.57589131		1.45902034		-0.00007062		 0.00006503		 0.00029254
O		2.67954412		6.37969253		2.84528746		 0.00021939		 0.00003350		-0.00022750
O		6.31123836		10.04831519		1.46294640		-0.00042786		-0.00013842		-0.00033666
O		2.67633232		0.90726962		2.84136140		 0.00058021		 0.00023428		 0.00040207
O		3.82242055		4.57053384		0.28527377		 0.00049256		-0.00019349		 0.00037925
O		5.16515494		6.38513268		4.01903402		-0.00035244		 0.00010582		-0.00031750
O		4.48986601		8.21961464		2.15513353		 0.00021736		-0.00025315		 0.00017473
O		4.49773447		2.73599708		2.14920118		-0.00015712		 0.00029351		-0.00021605
O		5.64378329		2.74181984		-0.40691816		-0.00017895		-0.00023675		-0.00017069
O		3.34381816		8.21382649		4.71125384		 0.00023948		 0.00019535		 0.00012851
