# total energy = -24714.0335055 eV	

CRYSTAL	
PRIMVEC	
		9.68100001		0.00000000		0.00000000	
		0.00000000		8.73899998		0.00000000	
		1.61441324		0.00000000		5.43965709	
PRIMCOORD
   40 1	
Si		2.35750744		3.58299038		1.09337214		 0.00054762		-0.00046412		-0.00017421	
Si		8.93790581		5.15600960		4.34628979		-0.00054762		 0.00046412		 0.00017421	
Si		3.29020015		7.95249037		1.62645931		-0.00054762		-0.00046412		 0.00017421	
Si		8.00521310		0.78650961		3.81320262		 0.00054762		 0.00046412		-0.00017421	
Si		8.13069919		3.58299038		1.62645931		-0.00011330		 0.00022353		-0.00007594	
Si		3.16471309		5.15600960		3.81320262		 0.00011330		-0.00022353		 0.00007594	
Si		7.19800744		7.95249037		1.09337214		 0.00011330		 0.00022353		 0.00007594	
Si		4.09740580		0.78650961		4.34628979		-0.00011330		-0.00022353		-0.00007594	
O		4.03384133		3.67037980		0.54396571		 0.00045251		-0.00002577		-0.00037451	
O		7.26157192		5.06862115		4.89569526		-0.00045251		 0.00002577		 0.00037451	
O		1.61386530		8.03987979		2.17586477		-0.00045251		-0.00002577		 0.00037451	
O		9.68154698		0.69912019		3.26379716		 0.00045251		 0.00002577		-0.00037451	
O		8.60171275		2.18475000		0.86490635		 0.00000783		-0.00036789		 0.00026912	
O		2.69369856		6.55424999		4.57475462		-0.00000783		 0.00036789		-0.00026912	
O		6.72699291		6.55424999		1.85492510		-0.00000783		-0.00036789		-0.00026912	
O		4.56842034		2.18475000		3.58473683		 0.00000783		 0.00036789		 0.00026912	
O		2.98584210		4.28210960		5.16767811		-0.00045686		-0.00012057		 0.00014665	
O		8.30957115		4.45689038		0.27198285		 0.00045686		 0.00012057		-0.00014665	
O		4.27627680		8.65160959		2.99181431		 0.00045686		-0.00012057		-0.00014665	
O		7.01913548		0.08739039		2.44784763		-0.00045686		 0.00012057		 0.00014665	
O		9.11677680		4.28210960		2.99181431		 0.00026348		 0.00033090		 0.00020991	
O		2.17863644		4.45689038		2.44784763		-0.00026348		-0.00033090		-0.00020991	
O		7.82634210		8.65160959		5.16767811		-0.00026348		 0.00033090		-0.00020991	
O		3.46907115		0.08739039		0.27198285		 0.00026348		-0.00033090		 0.00020991	
O		1.88649291		2.18475000		1.85492413		-0.00068109		-0.00015656		-0.00011580	
O		9.40892034		6.55424999		3.58473683		 0.00068109		 0.00015656		 0.00011580	
O		3.76121275		6.55424999		0.86490635		 0.00068109		-0.00015656		 0.00011580	
O		7.53419856		2.18475000		4.57475462		-0.00068109		 0.00015656		-0.00011580	
O		6.45436530		3.67037980		2.17586477		-0.00004963		-0.00019274		-0.00048057	
O		4.84104795		5.06862115		3.26379716		 0.00004963		 0.00019274		 0.00048057	
O		8.87434133		8.03987979		0.54396571		 0.00004963		-0.00019274		 0.00048057	
O		2.42107095		0.69912019		4.89569526		-0.00004963		 0.00019274		-0.00048057	
Mg		0.40360283		0.79524865		1.35991524		-0.00038549		 0.00069894		 0.00052913	
Mg		1.21081042		7.94375133		4.07974572		 0.00038549		-0.00069894		-0.00052913	
Mg		5.24410283		5.16474864		1.35991524		 0.00038549		 0.00069894		-0.00052913	
Mg		6.05131042		3.57425134		4.07974572		-0.00038549		-0.00069894		 0.00052913	
Mg		0.32288265		6.02990960		1.08793239		 0.00015099		 0.00003372		 0.00047511	
Mg		1.29152963		2.70909038		4.35172858		-0.00015099		-0.00003372		-0.00047511	
Mg		5.32482398		1.66040961		1.63189810		-0.00015099		 0.00003372		-0.00047511	
Mg		5.97058927		7.07859037		3.80776287		 0.00015099		-0.00003372		 0.00047511	
