# total energy = -24714.5226995 eV	

CRYSTAL	
PRIMVEC	
		9.27319965		0.00000000		0.00000000	
		0.00000000		8.72660017		0.00000000	
		0.00000000		0.00000000		4.92257603	
PRIMCOORD
   40 1	
Mg		0.00000000		7.89582627		1.23064262		0.00000000		-0.00044742		0.00000000	
Mg		0.00000000		0.83077205		3.69192878		0.00000000		 0.00044742		0.00000000	
Mg		4.63659983		5.19407213		3.69192878		0.00000000		 0.00044742		0.00000000	
Mg		4.63659983		3.53252804		1.23064262		-0.00000000		-0.00044742		0.00000000	
Mg		0.00000000		2.30993085		1.23064262		0.00000000		-0.00046537		0.00000000	
Mg		0.00000000		6.41666839		3.69192878		0.00000000		 0.00046537		0.00000000	
Mg		4.63659983		2.05336924		3.69192878		0.00000000		 0.00046537		0.00000000	
Mg		4.63659983		6.67323094		1.23064262		0.00000000		-0.00046537		-0.00000000	
Si		2.70591966		0.79935723		0.32784285		-0.00027581		 0.00015568		-0.00043936	
Si		6.56727999		7.92724294		4.59472855		 0.00027581		-0.00015568		 0.00043936	
Si		1.93068017		3.56394286		2.78912993		 0.00027581		-0.00015568		-0.00043936	
Si		7.34251948		5.16265546		2.13344331		-0.00027581		 0.00015568		 0.00043936	
Si		6.56727999		0.79935723		2.13344331		 0.00027581		 0.00015568		 0.00043936	
Si		2.70591966		7.92724294		2.78912993		-0.00027581		-0.00015568		-0.00043936	
Si		7.34251948		3.56394286		4.59472855		-0.00027581		-0.00015568		 0.00043936	
Si		1.93068017		5.16265546		0.32784285		 0.00027581		 0.00015568		-0.00043936	
O		1.08774632		0.81681032		0.38986757		 0.00002708		-0.00028757		-0.00002524	
O		8.18545333		7.90978985		4.53270475		-0.00002708		 0.00028757		 0.00002524	
O		3.54885351		3.54648977		2.85115373		-0.00002708		 0.00028757		-0.00002524	
O		5.72434614		5.18010855		2.07141859		 0.00002708		-0.00028757		 0.00002524	
O		8.18545333		0.81681032		2.07141859		-0.00002708		-0.00028757		 0.00002524	
O		1.08774632		7.90978985		2.85115373		 0.00002708		 0.00028757		-0.00002524	
O		5.72434614		3.54648977		4.53270475		 0.00002708		 0.00028757		 0.00002524	
O		3.54885351		5.18010855		0.38986757		-0.00002708		-0.00028757		-0.00002524	
O		3.49321524		2.18688569		0.34458004		-0.00056191		-0.00009848		 0.00072649	
O		5.77998442		6.53971355		4.57799320		 0.00056191		 0.00009848		-0.00072649	
O		1.14338459		2.17641347		2.80586620		 0.00056191		 0.00009848		 0.00072649	
O		8.12981506		6.55018578		2.11670612		-0.00056191		-0.00009848		-0.00072649	
O		5.77998442		2.18688569		2.11670612		 0.00056191		-0.00009848		-0.00072649	
O		3.49321524		6.53971355		2.80586620		-0.00056191		 0.00009848		 0.00072649	
O		8.12981506		2.17641347		4.57799320		-0.00056191		 0.00009848		-0.00072649	
O		1.14338459		6.55018578		0.34458004		 0.00056191		-0.00009848		 0.00072649	
O		3.24747452		8.50232598		1.42360770		 0.00001634		 0.00045002		-0.00004635	
O		6.02572513		0.22427326		3.49896462		-0.00001634		-0.00045002		 0.00004635	
O		1.38912531		4.58757242		3.88489386		-0.00001634		-0.00045002		-0.00004635	
O		7.88407434		4.13902590		1.03767753		 0.00001634		 0.00045002		 0.00004635	
O		6.02572513		8.50232598		1.03767753		-0.00001634		 0.00045002		 0.00004635	
O		3.24747452		0.22427326		3.88489386		 0.00001634		-0.00045002		-0.00004635	
O		7.88407434		4.58757242		3.49896462		 0.00001634		-0.00045002		 0.00004635	
O		1.38912531		4.13902590		1.42360770		-0.00001634		 0.00045002		-0.00004635	
