# total energy = -24715.4036752 eV	

CRYSTAL	
PRIMVEC	
		9.27319965		0.00000000		0.00000000	
		0.00000000		8.72660017		0.00000000	
		0.00000000		0.00000000		5.72083160	
PRIMCOORD
   40 1	
Mg		0.00000000		7.89582627		1.43020651		0.00000000		-0.00020657		-0.00000000	
Mg		0.00000000		0.83077205		4.29062046		0.00000000		 0.00020657		-0.00000000	
Mg		4.63659983		5.19407213		4.29062046		0.00000000		 0.00020657		-0.00000000	
Mg		4.63659983		3.53252804		1.43020651		0.00000000		-0.00020657		-0.00000000	
Mg		0.00000000		2.30993085		1.43020651		0.00000000		-0.00011168		-0.00000000	
Mg		0.00000000		6.41666839		4.29062046		0.00000000		 0.00011168		-0.00000000	
Mg		4.63659983		2.05336924		4.29062046		0.00000000		 0.00011168		0.00000000	
Mg		4.63659983		6.67323094		1.43020651		0.00000000		-0.00011168		0.00000000	
Si		2.70591966		0.79935723		0.38100703		-0.00007644		 0.00027001		 0.00007141	
Si		6.56727999		7.92724294		5.33981994		 0.00007644		-0.00027001		-0.00007141	
Si		1.93068017		3.56394286		3.24142097		 0.00007644		-0.00027001		 0.00007141	
Si		7.34251948		5.16265546		2.47940692		-0.00007644		 0.00027001		-0.00007141	
Si		6.56727999		0.79935723		2.47940692		 0.00007644		 0.00027001		-0.00007141	
Si		2.70591966		7.92724294		3.24142097		-0.00007644		-0.00027001		 0.00007141	
Si		7.34251948		3.56394286		5.33981994		-0.00007644		-0.00027001		-0.00007141	
Si		1.93068017		5.16265546		0.38100703		 0.00007644		 0.00027001		 0.00007141	
O		1.08774632		0.81681032		0.45309039		-0.00094296		-0.00072378		-0.00004381	
O		8.18545333		7.90978985		5.26773750		 0.00094296		 0.00072378		 0.00004381	
O		3.54885351		3.54648977		3.31350434		 0.00094296		 0.00072378		-0.00004381	
O		5.72434614		5.18010855		2.40732356		-0.00094296		-0.00072378		 0.00004381	
O		8.18545333		0.81681032		2.40732356		 0.00094296		-0.00072378		 0.00004381	
O		1.08774632		7.90978985		3.31350434		-0.00094296		 0.00072378		-0.00004381	
O		5.72434614		3.54648977		5.26773750		-0.00094296		 0.00072378		 0.00004381	
O		3.54885351		5.18010855		0.45309039		 0.00094296		-0.00072378		-0.00004381	
O		3.49321524		2.18688569		0.40045756		 0.00005912		 0.00030501		-0.00037636	
O		5.77998442		6.53971355		5.32036940		-0.00005912		-0.00030501		 0.00037636	
O		1.14338459		2.17641347		3.26087151		-0.00005912		-0.00030501		-0.00037636	
O		8.12981506		6.55018578		2.45995546		 0.00005912		 0.00030501		 0.00037636	
O		5.77998442		2.18688569		2.45995546		-0.00005912		 0.00030501		 0.00037636	
O		3.49321524		6.53971355		3.26087151		 0.00005912		-0.00030501		-0.00037636	
O		8.12981506		2.17641347		5.32036940		 0.00005912		-0.00030501		 0.00037636	
O		1.14338459		6.55018578		0.40045756		-0.00005912		 0.00030501		-0.00037636	
O		3.24747452		8.50232598		1.65446308		 0.00005333		-0.00041299		-0.00031335	
O		6.02572513		0.22427326		4.06636389		-0.00005333		 0.00041299		 0.00031335	
O		1.38912531		4.58757242		4.51487702		-0.00005333		 0.00041299		-0.00031335	
O		7.88407434		4.13902590		1.20594994		 0.00005333		-0.00041299		 0.00031335	
O		6.02572513		8.50232598		1.20594994		-0.00005333		-0.00041299		 0.00031335	
O		3.24747452		0.22427326		4.51487702		 0.00005333		 0.00041299		-0.00031335	
O		7.88407434		4.58757242		4.06636389		 0.00005333		 0.00041299		 0.00031335	
O		1.38912531		4.13902590		1.65446308		-0.00005333		-0.00041299		-0.00031335	
