# total energy = -24714.3219566 eV	

CRYSTAL	
PRIMVEC	
		9.27319965		0.00000000		0.00000000	
		0.00000000		8.72660017		0.00000000	
		0.00000000		0.00000000		5.85387420	
PRIMCOORD
   40 1	
Mg		0.00000000		7.89582627		1.46346762		0.00000000		-0.00021844		0.00000000	
Mg		0.00000000		0.83077205		4.39040287		0.00000000		 0.00021844		-0.00000000	
Mg		4.63659983		5.19407213		4.39040287		0.00000000		 0.00021844		0.00000000	
Mg		4.63659983		3.53252804		1.46346762		0.00000000		-0.00021844		-0.00000000	
Mg		0.00000000		2.30993085		1.46346762		0.00000000		-0.00008967		0.00000000	
Mg		0.00000000		6.41666839		4.39040287		0.00000000		 0.00008967		0.00000000	
Mg		4.63659983		2.05336924		4.39040287		-0.00000000		 0.00008967		0.00000000	
Mg		4.63659983		6.67323094		1.46346762		-0.00000000		-0.00008967		0.00000000	
Si		2.70591966		0.79935723		0.38986757		-0.00014506		-0.00030428		-0.00087463	
Si		6.56727999		7.92724294		5.46400199		 0.00014506		 0.00030428		 0.00087463	
Si		1.93068017		3.56394286		3.31680281		 0.00014506		 0.00030428		-0.00087463	
Si		7.34251948		5.16265546		2.53706675		-0.00014506		-0.00030428		 0.00087463	
Si		6.56727999		0.79935723		2.53706675		 0.00014506		-0.00030428		 0.00087463	
Si		2.70591966		7.92724294		3.31680281		-0.00014506		 0.00030428		-0.00087463	
Si		7.34251948		3.56394286		5.46400199		-0.00014506		 0.00030428		 0.00087463	
Si		1.93068017		5.16265546		0.38986757		 0.00014506		-0.00030428		-0.00087463	
O		1.08774632		0.81681032		0.46362660		 0.00019142		-0.00020832		 0.00023744	
O		8.18545333		7.90978985		5.39024296		-0.00019142		 0.00020832		-0.00023744	
O		3.54885351		3.54648977		3.39056184		-0.00019142		 0.00020832		 0.00023744	
O		5.72434614		5.18010855		2.46330864		 0.00019142		-0.00020832		-0.00023744	
O		8.18545333		0.81681032		2.46330864		-0.00019142		-0.00020832		-0.00023744	
O		1.08774632		7.90978985		3.39056184		 0.00019142		 0.00020832		 0.00023744	
O		5.72434614		3.54648977		5.39024296		 0.00019142		 0.00020832		-0.00023744	
O		3.54885351		5.18010855		0.46362660		-0.00019142		-0.00020832		 0.00023744	
O		3.49321524		2.18688569		0.40977064		-0.00029804		-0.00035449		 0.00067190	
O		5.77998442		6.53971355		5.44409892		 0.00029804		 0.00035449		-0.00067190	
O		1.14338459		2.17641347		3.33670588		 0.00029804		 0.00035449		 0.00067190	
O		8.12981506		6.55018578		2.51716368		-0.00029804		-0.00035449		-0.00067190	
O		5.77998442		2.18688569		2.51716368		 0.00029804		-0.00035449		-0.00067190	
O		3.49321524		6.53971355		3.33670588		-0.00029804		 0.00035449		 0.00067190	
O		8.12981506		2.17641347		5.44409892		-0.00029804		 0.00035449		-0.00067190	
O		1.14338459		6.55018578		0.40977064		 0.00029804		-0.00035449		 0.00067190	
O		3.24747452		8.50232598		1.69293851		-0.00057403		 0.00002027		-0.00042913	
O		6.02572513		0.22427326		4.16093105		 0.00057403		-0.00002027		 0.00042913	
O		1.38912531		4.58757242		4.61987376		 0.00057403		-0.00002027		-0.00042913	
O		7.88407434		4.13902590		1.23399581		-0.00057403		 0.00002027		 0.00042913	
O		6.02572513		8.50232598		1.23399581		 0.00057403		 0.00002027		 0.00042913	
O		3.24747452		0.22427326		4.61987376		-0.00057403		-0.00002027		-0.00042913	
O		7.88407434		4.58757242		4.16093105		-0.00057403		-0.00002027		 0.00042913	
O		1.38912531		4.13902590		1.69293851		 0.00057403		 0.00002027		-0.00042913	
