# total energy = -92484.0704031 eV	

CRYSTAL	
PRIMVEC	
		18.50000672		0.00000000		2.96000932	
		0.00000000		17.89998989		0.00000000	
		0.84320106		0.00000000		5.26999728	
PRIMCOORD
   164 1	
Mg		2.72541522		3.04299734		2.38740037		 0.00034200		 0.00035224		-0.00024195	
Mg		16.61778320		14.85699067		5.84260062		-0.00034200		-0.00035224		 0.00024195	
Mg		7.58701661		14.85699067		5.73280050		 0.00022049		-0.00085618		 0.00009337	
Mg		11.75618367		3.04299734		2.49720049		-0.00022049		 0.00085618		-0.00009337	
Mg		16.61778320		11.99299416		5.84260062		-0.00034200		 0.00035224		 0.00024195	
Mg		2.72541522		5.90699573		2.38740037		 0.00034200		-0.00035224		-0.00024195	
Mg		11.75618367		5.90699573		2.49720049		-0.00022049		-0.00085618		-0.00009337	
Mg		7.58701661		11.99299416		5.73280050		 0.00022049		 0.00085618		 0.00009337	
Mg		3.13858486		1.43199919		4.96970035		-0.00013987		 0.00008024		-0.00021251	
Mg		16.20461542		16.46799070		3.26030063		 0.00013987		-0.00008024		 0.00021251	
Mg		7.15698332		16.46799070		3.04509945		-0.00036860		-0.00011890		 0.00005107	
Mg		12.18621509		1.43199919		5.18489966		 0.00036860		 0.00011890		-0.00005107	
Mg		16.20461542		10.38199414		3.26030063		 0.00013987		 0.00008024		 0.00021251	
Mg		3.13858486		7.51799575		4.96970035		-0.00013987		-0.00008024		-0.00021251	
Mg		12.18621509		7.51799575		5.18489966		 0.00036860		-0.00011890		-0.00005107	
Mg		7.15698332		10.38199414		3.04509945		-0.00036860		 0.00011890		 0.00005107	
Mg		2.72541522		17.54199009		2.38740037		 0.00091511		 0.00036901		-0.00006348	
Mg		16.61778320		0.35799980		5.84260062		-0.00091511		-0.00036901		 0.00006348	
Mg		7.58701661		0.35799980		5.73280050		 0.00019503		-0.00002557		-0.00002034	
Mg		11.75618367		17.54199009		2.49720049		-0.00019503		 0.00002557		 0.00002034	
Mg		16.61778320		8.59199515		5.84260062		-0.00091511		 0.00036901		 0.00006348	
Mg		2.72541522		9.30799474		2.38740037		 0.00091511		-0.00036901		-0.00006348	
Mg		11.75618367		9.30799474		2.49720049		-0.00019503		-0.00002557		 0.00002034	
Mg		7.58701661		8.59199515		5.73280050		 0.00019503		 0.00002557		-0.00002034	
Mg		3.13858486		4.47499841		4.96970035		 0.00041020		0.00000000		 0.00010100	
Mg		16.20461542		13.42499335		3.26030063		-0.00041020		0.00000000		-0.00010100	
Mg		7.15698332		13.42499335		3.04509945		-0.00049946		-0.00000000		 0.00061646	
Mg		12.18621509		4.47499841		5.18489966		 0.00049946		-0.00000000		-0.00061646	
Si		0.79952720		14.67799171		1.61710024		-0.00007887		 0.00001830		-0.00043600	
Si		18.54367309		3.22199818		6.61290074		 0.00007887		-0.00001830		 0.00043600	
Si		9.36112806		3.22199818		5.55450036		-0.00019277		-0.00023880		-0.00033387	
Si		9.98207035		14.67799171		2.67550062		 0.00019277		 0.00023880		 0.00033387	
Si		18.54367309		5.72799676		6.61290074		 0.00007887		 0.00001830		 0.00043600	
Si		0.79952720		12.17199312		1.61710024		-0.00007887		-0.00001830		-0.00043600	
Si		9.98207035		12.17199312		2.67550062		 0.00019277		-0.00023880		 0.00033387	
Si		9.36112806		5.72799676		5.55450036		-0.00019277		 0.00023880		-0.00033387	
Si		1.22112773		16.46799070		4.25210076		-0.00024691		-0.00019988		-0.00010021	
Si		18.12207256		1.43199919		3.97790022		 0.00024691		 0.00019988		 0.00010021	
Si		8.93952753		1.43199919		2.91949985		-0.00009016		-0.00002864		-0.00020502	
Si		10.40367088		16.46799070		5.31049926		 0.00009016		 0.00002864		 0.00020502	
Si		18.12207256		7.51799575		3.97790022		 0.00024691		-0.00019988		 0.00010021	
Si		1.22112773		10.38199414		4.25210076		-0.00024691		 0.00019988		-0.00010021	
Si		10.40367088		10.38199414		5.31049926		 0.00009016		-0.00002864		 0.00020502	
Si		8.93952753		7.51799575		2.91949985		-0.00009016		 0.00002864		-0.00020502	
Si		4.10372840		16.46799070		0.86200007		-0.00050183		-0.00025170		 0.00000275	
Si		15.23947002		1.43199919		7.36799904		 0.00050183		 0.00025170		-0.00000275	
Si		5.63532821		1.43199919		3.67460002		 0.00022753		 0.00027404		 0.00022910	
Si		13.70787208		16.46799070		4.55539909		-0.00022753		-0.00027404		-0.00022910	
Si		15.23947002		7.51799575		7.36799904		 0.00050183		-0.00025170		-0.00000275	
Si		4.10372840		10.38199414		0.86200007		-0.00050183		 0.00025170		 0.00000275	
Si		13.70787208		10.38199414		4.55539909		-0.00022753		 0.00027404		-0.00022910	
Si		5.63532821		7.51799575		3.67460002		 0.00022753		-0.00027404		 0.00022910	
Si		4.52532705		14.67799171		3.49700058		-0.00012061		-0.00004073		-0.00034248	
Si		14.81787136		3.22199818		4.73300040		 0.00012061		 0.00004073		 0.00034248	
Si		5.21372767		3.22199818		1.03959950		-0.00006492		-0.00014303		 0.00033571	
Si		14.12947261		14.67799171		7.19039961		 0.00006492		 0.00014303		-0.00033571	
Si		14.81787136		5.72799676		4.73300040		 0.00012061		-0.00004073		 0.00034248	
Si		4.52532705		12.17199312		3.49700058		-0.00012061		 0.00004073		-0.00034248	
Si		14.12947261		12.17199312		7.19039961		 0.00006492		-0.00014303		-0.00033571	
Si		5.21372767		5.72799676		1.03959950		-0.00006492		 0.00014303		 0.00033571	
O		1.27863949		1.25299836		1.23160077		 0.00026084		 0.00007463		-0.00007853	
O		18.06455892		16.64699153		6.99840022		-0.00026084		-0.00007463		 0.00007853	
O		8.73023920		16.64699153		4.99139958		 0.00002096		-0.00017297		-0.00053359	
O		10.61295921		1.25299836		3.23859953		-0.00002096		 0.00017297		 0.00053359	
O		18.06455892		10.20299330		6.99840022		-0.00026084		 0.00007463		 0.00007853	
O		1.27863949		7.69699659		1.23160077		 0.00026084		-0.00007463		-0.00007853	
O		10.61295921		7.69699659		3.23859953		-0.00002096		-0.00017297		 0.00053359	
O		8.73023920		10.20299330		4.99139958		 0.00002096		 0.00017297		-0.00053359	
O		1.70024002		3.22199818		3.86659941		 0.00020141		 0.00007228		-0.00012358	
O		17.64296026		14.67799171		4.36339970		-0.00020141		-0.00007228		 0.00012358	
O		8.30864054		14.67799171		2.35639906		 0.00016231		 0.00029887		 0.00010912	
O		11.03455974		3.22199818		5.87360005		-0.00016231		-0.00029887		-0.00010912	
O		17.64296026		12.17199312		4.36339970		-0.00020141		 0.00007228		 0.00012358	
O		1.70024002		5.72799676		3.86659941		 0.00020141		-0.00007228		-0.00012358	
O		11.03455974		5.72799676		5.87360005		-0.00016231		 0.00029887		-0.00010912	
O		8.30864054		12.17199312		2.35639906		 0.00016231		-0.00029887		 0.00010912	
O		1.27863949		13.42499335		1.23160077		 0.00081372		-0.00000000		-0.00016643	
O		18.06455892		4.47499841		6.99840022		-0.00081372		-0.00000000		 0.00016643	
O		8.73023920		4.47499841		4.99139958		 0.00014116		-0.00000000		-0.00025770	
O		10.61295921		13.42499335		3.23859953		-0.00014116		-0.00000000		 0.00025770	
O		1.27863949		4.47499841		1.23160077		-0.00044636		0.00000000		-0.00078360	
O		18.06455892		13.42499335		6.99840022		 0.00044636		0.00000000		 0.00078360	
O		8.73023920		13.42499335		4.99139958		-0.00020114		0.00000000		 0.00007361	
O		10.61295921		4.47499841		3.23859953		 0.00020114		0.00000000		-0.00007361	
O		1.70024002		0.00000000		3.86659941		-0.00048283		-0.00036947		 0.00004087	
O		17.64296026		0.00000000		4.36339970		 0.00048283		 0.00036947		-0.00004087	
O		8.30864054		0.00000000		2.35639906		-0.00060538		 0.00009423		 0.00028943	
O		11.03455974		0.00000000		5.87360005		 0.00060538		-0.00009423		-0.00028943	
O		17.64296026		8.94999494		4.36339970		 0.00048283		-0.00036947		-0.00004087	
O		1.70024002		8.94999494		3.86659941		-0.00048283		 0.00036947		 0.00004087	
O		11.03455974		8.94999494		5.87360005		 0.00060538		 0.00009423		-0.00028943	
O		8.30864054		8.94999494		2.35639906		-0.00060538		-0.00009423		 0.00028943	
O		0.96715945		15.57299027		0.41150033		 0.00040245		 0.00007508		-0.00034576	
O		18.37603896		2.32699962		7.81850065		-0.00040245		-0.00007508		 0.00034576	
O		8.78876080		2.32699962		4.23050083		-0.00035853		-0.00034963		-0.00002446	
O		10.55443949		15.57299027		3.99950016		 0.00035853		 0.00034963		 0.00002446	
O		18.37603896		6.62299532		7.81850065		-0.00040245		 0.00007508		 0.00034576	
O		0.96715945		11.27699457		0.41150033		 0.00040245		-0.00007508		-0.00034576	
O		10.55443949		11.27699457		3.99950016		 0.00035853		-0.00034963		 0.00002446	
O		8.78876080		6.62299532		4.23050083		-0.00035853		 0.00034963		-0.00002446	
O		1.38032722		15.57299027		2.99380031		-0.00014164		-0.00035547		-0.00027526	
O		17.96287119		2.32699962		5.23620067		 0.00014164		 0.00035547		 0.00027526	
O		8.35872750		2.32699962		1.54279978		-0.00007891		-0.00003343		-0.00008896	
O		10.98447278		15.57299027		6.68719933		 0.00007891		 0.00003343		 0.00008896	
O		17.96287119		6.62299532		5.23620067		 0.00014164		-0.00035547		 0.00027526	
O		1.38032722		11.27699457		2.99380031		-0.00014164		 0.00035547		-0.00027526	
O		10.98447278		11.27699457		6.68719933		 0.00007891		-0.00003343		 0.00008896	
O		8.35872750		6.62299532		1.54279978		-0.00007891		 0.00003343		-0.00008896	
O		3.55715964		3.22199818		0.82590089		-0.00018361		 0.00018267		-0.00021811	
O		15.78604064		14.67799171		7.40410010		 0.00018361		-0.00018267		 0.00021811	
O		6.19876061		14.67799171		3.81610027		-0.00003780		 0.00044011		 0.00020164	
O		13.14443968		3.22199818		4.41390071		 0.00003780		-0.00044011		-0.00020164	
O		15.78604064		12.17199312		7.40410010		 0.00018361		 0.00018267		 0.00021811	
O		3.55715964		5.72799676		0.82590089		-0.00018361		-0.00018267		-0.00021811	
O		13.14443968		5.72799676		4.41390071		 0.00003780		 0.00044011		-0.00020164	
O		6.19876061		12.17199312		3.81610027		-0.00003780		-0.00044011		 0.00020164	
O		3.98719106		1.25299836		3.51360006		 0.00039180		-0.00058437		 0.00010159	
O		15.35600735		16.64699153		4.71639905		-0.00039180		 0.00058437		-0.00010159	
O		5.78559283		16.64699153		1.23380029		-0.00058153		 0.00030753		-0.00032213	
O		13.55760745		1.25299836		6.99620069		 0.00058153		-0.00030753		 0.00032213	
O		15.35600735		10.20299330		4.71639905		-0.00039180		-0.00058437		-0.00010159	
O		3.98719106		7.69699659		3.51360006		 0.00039180		 0.00058437		 0.00010159	
O		13.55760745		7.69699659		6.99620069		 0.00058153		 0.00030753		 0.00032213	
O		5.78559283		10.20299330		1.23380029		-0.00058153		-0.00030753		-0.00032213	
O		3.55715964		0.00000000		0.82590089		-0.00037504		-0.00004829		 0.00053372	
O		15.78604064		0.00000000		7.40410010		 0.00037504		 0.00004829		-0.00053372	
O		6.19876061		0.00000000		3.81610027		-0.00040976		-0.00007818		-0.00005691	
O		13.14443968		0.00000000		4.41390071		 0.00040976		 0.00007818		 0.00005691	
O		15.78604064		8.94999494		7.40410010		 0.00037504		-0.00004829		-0.00053372	
O		3.55715964		8.94999494		0.82590089		-0.00037504		 0.00004829		 0.00053372	
O		13.14443968		8.94999494		4.41390071		 0.00040976		-0.00007818		 0.00005691	
O		6.19876061		8.94999494		3.81610027		-0.00040976		 0.00007818		-0.00005691	
O		3.89444007		13.42499335		2.93389980		-0.00011193		0.00000000		-0.00002288	
O		15.44876022		4.47499841		5.29609931		 0.00011193		0.00000000		 0.00002288	
O		6.53603916		4.47499841		5.92409919		 0.00032292		0.00000000		-0.00021487	
O		12.80715925		13.42499335		2.30589992		-0.00032292		0.00000000		 0.00021487	
O		3.97876018		4.47499841		3.46089953		 0.00075577		0.00000000		 0.00089135	
O		15.36444011		13.42499335		4.76909958		-0.00075577		0.00000000		-0.00089135	
O		5.77716007		13.42499335		1.18109976		 0.00037595		0.00000000		-0.00059112	
O		13.56604021		4.47499841		7.04889935		-0.00037595		0.00000000		 0.00059112	
O		3.95295979		15.57299027		2.17299918		-0.00023916		-0.00024308		 0.00007631	
O		15.39024050		2.32699962		6.05699993		 0.00023916		 0.00024308		-0.00007631	
O		6.22455912		2.32699962		5.10400062		 0.00024135		 0.00004235		 0.00028644	
O		13.11863929		15.57299027		3.12600036		-0.00024135		-0.00004235		-0.00028644	
O		15.39024050		6.62299532		6.05699993		 0.00023916		-0.00024308		-0.00007631	
O		3.95295979		11.27699457		2.17299918		-0.00023916		 0.00024308		 0.00007631	
O		13.11863929		11.27699457		3.12600036		-0.00024135		 0.00004235		-0.00028644	
O		6.22455912		6.62299532		5.10400062		 0.00024135		-0.00004235		 0.00028644	
O		4.37456032		15.57299027		4.80799969		 0.00022642		-0.00010561		-0.00029158	
O		14.96863996		2.32699962		3.42199942		-0.00022642		 0.00010561		 0.00029158	
O		5.80296046		2.32699962		2.46900011		-0.00001357		-0.00007333		 0.00017542	
O		13.54023983		15.57299027		5.76100087		 0.00001357		 0.00007333		-0.00017542	
O		14.96863996		6.62299532		3.42199942		-0.00022642		-0.00010561		 0.00029158	
O		4.37456032		11.27699457		4.80799969		 0.00022642		 0.00010561		-0.00029158	
O		13.54023983		11.27699457		5.76100087		 0.00001357		-0.00007333		-0.00017542	
O		5.80296046		6.62299532		2.46900011		-0.00001357		 0.00007333		 0.00017542	
H		18.07148162		0.00000000		3.66170076		-0.00034086		-0.00030553		 0.00020277	
H		1.27171867		0.00000000		4.56830022		 0.00034086		 0.00030553		-0.00020277	
H		10.35307807		0.00000000		4.99429980		 0.00044653		-0.00029111		 0.00036719	
H		8.99012034		0.00000000		3.23569931		-0.00044653		 0.00029111		-0.00036719	
H		1.27171867		8.94999494		4.56830022		 0.00034086		-0.00030553		-0.00020277	
H		18.07148162		8.94999494		3.66170076		-0.00034086		 0.00030553		 0.00020277	
H		8.99012034		8.94999494		3.23569931		-0.00044653		-0.00029111		-0.00036719	
H		10.35307807		8.94999494		4.99429980		 0.00044653		 0.00029111		 0.00036719	
