# total energy = -92493.4505735 eV	

CRYSTAL	
PRIMVEC	
		18.49999462		0.00000000		-1.47999586	
		0.00000000		17.89999731		0.00000000	
		-0.42160720		0.00000000		5.27000644	
PRIMCOORD
   164 1	
Mg		2.24479246		3.04299732		1.81019946		-0.00040805		-0.00099704		-0.00078780	
Mg		15.83360796		14.85699071		1.97979999		 0.00040805		 0.00099704		 0.00078780	
Mg		6.47399129		14.85699071		4.08999997		 0.00002125		-0.00165518		 0.00068929	
Mg		11.60440728		3.04299732		-0.30000051		-0.00002125		 0.00165518		-0.00068929	
Mg		15.83360796		11.99299411		1.97979999		 0.00040805		-0.00099704		 0.00078780	
Mg		2.24479246		5.90699577		1.81019946		-0.00040805		 0.00099704		-0.00078780	
Mg		11.60440728		5.90699577		-0.30000051		-0.00002125		-0.00165518		-0.00068929	
Mg		6.47399129		11.99299411		4.08999997		 0.00002125		 0.00165518		 0.00068929	
Mg		2.03820735		1.43199830		4.39250039		-0.00016757		-0.00062326		 0.00127259	
Mg		16.04019121		16.46799158		-0.60249909		 0.00016757		 0.00062326		-0.00127259	
Mg		6.68900780		16.46799158		1.40230002		-0.00031566		-0.00081629		-0.00054200	
Mg		11.38939262		1.43199830		2.38769943		 0.00031566		 0.00081629		 0.00054200	
Mg		16.04019121		10.38199324		-0.60249909		 0.00016757		-0.00062326		-0.00127259	
Mg		2.03820735		7.51799664		4.39250039		-0.00016757		 0.00062326		 0.00127259	
Mg		11.38939262		7.51799664		2.38769943		 0.00031566		-0.00081629		 0.00054200	
Mg		6.68900780		10.38199324		1.40230002		-0.00031566		 0.00081629		-0.00054200	
Mg		2.24479246		17.54199031		1.81019946		-0.00106787		-0.00065842		 0.00000118	
Mg		15.83360796		0.35799957		1.97979999		 0.00106787		 0.00065842		-0.00000118	
Mg		6.47399129		0.35799957		4.08999997		 0.00019767		 0.00146252		-0.00031573	
Mg		11.60440728		17.54199031		-0.30000051		-0.00019767		-0.00146252		 0.00031573	
Mg		15.83360796		8.59199537		1.97979999		 0.00106787		-0.00065842		-0.00000118	
Mg		2.24479246		9.30799452		1.81019946		-0.00106787		 0.00065842		 0.00000118	
Mg		11.60440728		9.30799452		-0.30000051		-0.00019767		 0.00146252		 0.00031573	
Mg		6.47399129		8.59199537		4.08999997		 0.00019767		-0.00146252		-0.00031573	
Mg		2.03820735		4.47499747		4.39250039		-0.00067260		0.00000000		-0.00017471	
Mg		16.04019121		13.42499241		-0.60249909		 0.00067260		0.00000000		 0.00017471	
Mg		6.68900780		13.42499241		1.40230002		-0.00116733		-0.00000000		-0.00232721	
Mg		11.38939262		4.47499747		2.38769943		 0.00116733		-0.00000000		 0.00232721	
Si		0.43273524		14.67799185		1.48390069		 0.00139711		 0.00075907		 0.00101794	
Si		17.64566518		3.22199803		2.30610061		-0.00139711		-0.00075907		-0.00101794	
Si		8.36193670		3.22199803		3.46770017		 0.00111964		-0.00083224		 0.00080988	
Si		9.71646372		14.67799185		0.32229928		-0.00111964		 0.00083224		-0.00080988	
Si		17.64566518		5.72799691		2.30610061		-0.00139711		 0.00075907		-0.00101794	
Si		0.43273524		12.17199297		1.48390069		 0.00139711		-0.00075907		 0.00101794	
Si		9.71646372		12.17199297		0.32229928		-0.00111964		-0.00083224		-0.00080988	
Si		8.36193670		5.72799691		3.46770017		 0.00111964		 0.00083224		 0.00080988	
Si		0.22193535		16.46799158		4.11890020		-0.00003762		 0.00180713		 0.00007255	
Si		17.85646507		1.43199830		-0.32890075		 0.00003762		-0.00180713		-0.00007255	
Si		8.57273658		1.43199830		0.83270066		 0.00039543		-0.00058865		 0.00074659	
Si		9.50566198		16.46799158		2.95730065		-0.00039543		 0.00058865		-0.00074659	
Si		17.85646507		7.51799664		-0.32890075		 0.00003762		 0.00180713		-0.00007255	
Si		0.22193535		10.38199324		4.11890020		-0.00003762		-0.00180713		 0.00007255	
Si		9.50566198		10.38199324		2.95730065		-0.00039543		-0.00058865		-0.00074659	
Si		8.57273658		7.51799664		0.83270066		 0.00039543		 0.00058865		 0.00074659	
Si		4.05313601		16.46799158		-0.11479920		-0.00079977		 0.00026488		-0.00105022	
Si		14.02526255		1.43199830		3.90480051		 0.00079977		-0.00026488		 0.00105022	
Si		4.95233581		1.43199830		2.43140056		 0.00033760		 0.00058522		-0.00011594	
Si		13.12606461		16.46799158		1.35860075		-0.00033760		-0.00058522		 0.00011594	
Si		14.02526255		7.51799664		3.90480051		 0.00079977		 0.00026488		 0.00105022	
Si		4.05313601		10.38199324		-0.11479920		-0.00079977		-0.00026488		-0.00105022	
Si		13.12606461		10.38199324		1.35860075		-0.00033760		 0.00058522		 0.00011594	
Si		4.95233581		7.51799664		2.43140056		 0.00033760		-0.00058522		-0.00011594	
Si		3.84233613		14.67799185		2.52020031		 0.00058723		 0.00019647		-0.00058961	
Si		14.23606244		3.22199803		1.26979914		-0.00058723		-0.00019647		 0.00058961	
Si		5.16313569		3.22199803		-0.20360081		-0.00032156		-0.00076004		-0.00078691	
Si		12.91526473		14.67799185		3.99360026		 0.00032156		 0.00076004		 0.00078691	
Si		14.23606244		5.72799691		1.26979914		-0.00058723		 0.00019647		 0.00058961	
Si		3.84233613		12.17199297		2.52020031		 0.00058723		-0.00019647		-0.00058961	
Si		12.91526473		12.17199297		3.99360026		 0.00032156		-0.00076004		 0.00078691	
Si		5.16313569		5.72799691		-0.20360081		-0.00032156		 0.00076004		-0.00078691	
O		1.02568009		1.25299944		0.96519968		 0.00054469		-0.00110153		-0.00053122	
O		17.05272033		16.64699044		2.82479977		-0.00054469		 0.00110153		 0.00053122	
O		7.84488002		16.64699044		3.03780077		-0.00097616		-0.00022253		 0.00042938	
O		10.23352040		1.25299944		0.75220054		 0.00097616		 0.00022253		-0.00042938	
O		17.05272033		10.20299438		2.82479977		-0.00054469		-0.00110153		 0.00053122	
O		1.02568009		7.69699550		0.96519968		 0.00054469		 0.00110153		-0.00053122	
O		10.23352040		7.69699550		0.75220054		 0.00097616		-0.00022253		-0.00042938	
O		7.84488002		10.20299438		3.03780077		-0.00097616		 0.00022253		 0.00042938	
O		0.81488021		3.22199803		3.60019919		-0.00110244		-0.00031020		 0.00168359	
O		17.26352021		14.67799185		0.18980026		 0.00110244		 0.00031020		-0.00168359	
O		8.05567991		14.67799185		0.40279940		-0.00155553		-0.00003754		 0.00257014	
O		10.02272051		3.22199803		3.38720005		 0.00155553		 0.00003754		-0.00257014	
O		17.26352021		12.17199297		0.18980026		 0.00110244		-0.00031020		-0.00168359	
O		0.81488021		5.72799691		3.60019919		-0.00110244		 0.00031020		 0.00168359	
O		10.02272051		5.72799691		3.38720005		 0.00155553		-0.00003754		-0.00257014	
O		8.05567991		12.17199297		0.40279940		-0.00155553		 0.00003754		 0.00257014	
O		1.02568009		13.42499241		0.96519968		-0.00008925		0.00000000		 0.00041603	
O		17.05272033		4.47499747		2.82479977		 0.00008925		0.00000000		-0.00041603	
O		7.84488002		4.47499747		3.03780077		-0.00121899		0.00000000		 0.00053866	
O		10.23352040		13.42499241		0.75220054		 0.00121899		0.00000000		-0.00053866	
O		1.02568009		4.47499747		0.96519968		-0.00157367		-0.00000000		 0.00298810	
O		17.05272033		13.42499241		2.82479977		 0.00157367		-0.00000000		-0.00298810	
O		7.84488002		13.42499241		3.03780077		-0.00143888		-0.00000000		 0.00165118	
O		10.23352040		4.47499747		0.75220054		 0.00143888		-0.00000000		-0.00165118	
O		0.81488021		0.00000000		3.60019919		-0.00017724		 0.00058843		-0.00109657	
O		17.26352021		0.00000000		0.18980026		 0.00017724		-0.00058843		 0.00109657	
O		8.05567991		0.00000000		0.40279940		 0.00066186		-0.00147362		-0.00054262	
O		10.02272051		0.00000000		3.38720005		-0.00066186		 0.00147362		 0.00054262	
O		17.26352021		8.94999494		0.18980026		 0.00017724		 0.00058843		 0.00109657	
O		0.81488021		8.94999494		3.60019919		-0.00017724		-0.00058843		-0.00109657	
O		10.02272051		8.94999494		3.38720005		-0.00066186		-0.00147362		 0.00054262	
O		8.05567991		8.94999494		0.40279940		 0.00066186		 0.00147362		-0.00054262	
O		0.90391937		15.57299172		0.18949960		 0.00046629		 0.00005945		-0.00136201	
O		17.17447919		2.32699817		3.60049985		-0.00046629		-0.00005945		 0.00136201	
O		8.09311919		2.32699817		2.23250077		 0.00088255		 0.00096848		-0.00064791	
O		9.98527937		15.57299172		1.55750054		-0.00088255		-0.00096848		 0.00064791	
O		17.17447919		6.62299678		3.60049985		-0.00046629		 0.00005945		 0.00136201	
O		0.90391937		11.27699311		0.18949960		 0.00046629		-0.00005945		-0.00136201	
O		9.98527937		11.27699311		1.55750054		-0.00088255		 0.00096848		 0.00064791	
O		8.09311919		6.62299678		2.23250077		 0.00088255		-0.00096848		-0.00064791	
O		0.69733611		15.57299172		2.77180053		 0.00138475		 0.00123457		 0.00070447	
O		17.38106431		2.32699817		1.01820077		-0.00138475		-0.00123457		-0.00070447	
O		8.30813571		2.32699817		-0.45519918		-0.00256135		-0.00001973		 0.00034679	
O		9.77026471		15.57299172		4.24520048		 0.00256135		 0.00001973		-0.00034679	
O		17.38106431		6.62299678		1.01820077		-0.00138475		 0.00123457		-0.00070447	
O		0.69733611		11.27699311		2.77180053		 0.00138475		-0.00123457		 0.00070447	
O		9.77026471		11.27699311		4.24520048		 0.00256135		-0.00001973		-0.00034679	
O		8.30813571		6.62299678		-0.45519918		-0.00256135		 0.00001973		 0.00034679	
O		3.49392047		3.22199803		-0.01769982		-0.00008636		 0.00014975		-0.00028315	
O		14.58447994		14.67799185		3.80769927		 0.00008636		-0.00014975		 0.00028315	
O		5.50311994		14.67799185		2.43970019		 0.00052919		 0.00033256		-0.00021999	
O		12.57528048		3.22199803		1.35029926		-0.00052919		-0.00033256		 0.00021999	
O		14.58447994		12.17199297		3.80769927		 0.00008636		 0.00014975		 0.00028315	
O		3.49392047		5.72799691		-0.01769982		-0.00008636		-0.00014975		-0.00028315	
O		12.57528048		5.72799691		1.35029926		-0.00052919		 0.00033256		 0.00021999	
O		5.50311994		12.17199297		2.43970019		 0.00052919		-0.00033256		-0.00021999	
O		3.27890396		1.25299944		2.67000013		 0.00032428		 0.00016188		-0.00049595	
O		14.79949646		16.64699044		1.11999932		-0.00032428		-0.00016188		 0.00049595	
O		5.70970320		16.64699044		-0.14260074		-0.00085178		 0.00053010		-0.00003271	
O		12.36869536		1.25299944		3.93260019		 0.00085178		-0.00053010		 0.00003271	
O		14.79949646		10.20299438		1.11999932		-0.00032428		 0.00016188		 0.00049595	
O		3.27890396		7.69699550		2.67000013		 0.00032428		-0.00016188		-0.00049595	
O		12.36869536		7.69699550		3.93260019		 0.00085178		 0.00053010		 0.00003271	
O		5.70970320		10.20299438		-0.14260074		-0.00085178		-0.00053010		-0.00003271	
O		3.49392047		0.00000000		-0.01769982		-0.00082149		 0.00046810		-0.00081158	
O		14.58447994		0.00000000		3.80769927		 0.00082149		-0.00046810		 0.00081158	
O		5.50311994		0.00000000		2.43970019		 0.00033384		-0.00035940		 0.00263387	
O		12.57528048		0.00000000		1.35029926		-0.00033384		 0.00035940		-0.00263387	
O		14.58447994		8.94999494		3.80769927		 0.00082149		 0.00046810		 0.00081158	
O		3.49392047		8.94999494		-0.01769982		-0.00082149		-0.00046810		-0.00081158	
O		12.57528048		8.94999494		1.35029926		-0.00033384		-0.00035940		-0.00263387	
O		5.50311994		8.94999494		2.43970019		 0.00033384		 0.00035940		 0.00263387	
O		3.32527945		13.42499241		2.09030090		-0.00258703		0.00000000		-0.00151945	
O		14.75311911		4.47499747		1.69970040		 0.00258703		0.00000000		 0.00151945	
O		5.33448078		4.47499747		4.54769905		-0.00297882		-0.00000000		-0.00087945	
O		12.74391964		13.42499241		-0.75769960		 0.00297882		-0.00000000		 0.00087945	
O		3.28312059		4.47499747		2.61729969		-0.00057426		-0.00000000		 0.00102900	
O		14.79527983		13.42499241		1.17269976		 0.00057426		-0.00000000		-0.00102900	
O		5.71391983		13.42499241		-0.19529932		 0.00156840		0.00000000		 0.00261429	
O		12.36448059		4.47499747		3.98530063		-0.00156840		0.00000000		-0.00261429	
O		3.57352048		15.57299172		1.28500091		-0.00047635		 0.00054461		-0.00045931	
O		14.50487994		2.32699817		2.50500040		 0.00047635		-0.00054461		 0.00045931	
O		5.21272005		2.32699817		3.77200083		 0.00126207		-0.00024165		 0.00008202	
O		12.86568037		15.57299172		0.01800048		-0.00126207		 0.00024165		-0.00008202	
O		14.50487994		6.62299678		2.50500040		 0.00047635		 0.00054461		 0.00045931	
O		3.57352048		11.27699311		1.28500091		-0.00047635		-0.00054461		-0.00045931	
O		12.86568037		11.27699311		0.01800048		-0.00126207		-0.00024165		-0.00008202	
O		5.21272005		6.62299678		3.77200083		 0.00126207		 0.00024165		 0.00008202	
O		3.36272059		15.57299172		3.92000042		-0.00087761		-0.00066431		-0.00079266	
O		14.71567983		2.32699817		-0.12999911		 0.00087761		 0.00066431		 0.00079266	
O		5.42351994		2.32699817		1.13699946		-0.00103463		-0.00032342		-0.00078346	
O		12.65488048		15.57299172		2.65299999		 0.00103463		 0.00032342		 0.00078346	
O		14.71567983		6.62299678		-0.12999911		 0.00087761		-0.00066431		 0.00079266	
O		3.36272059		11.27699311		3.92000042		-0.00087761		 0.00066431		-0.00079266	
O		12.65488048		11.27699311		2.65299999		 0.00103463		-0.00032342		 0.00078346	
O		5.42351994		6.62299678		1.13699946		-0.00103463		 0.00032342		-0.00078346	
H		17.88176113		0.00000000		-0.64509966		 0.00082534		-0.00102802		 0.00040091	
H		0.19663929		0.00000000		4.43509911		-0.00082534		 0.00102802		-0.00040091	
H		9.53095804		0.00000000		2.64109989		 0.00098302		-0.00089806		-0.00058938	
H		8.54744052		0.00000000		1.14889956		-0.00098302		 0.00089806		 0.00058938	
H		0.19663929		8.94999494		4.43509911		-0.00082534		-0.00102802		-0.00040091	
H		17.88176113		8.94999494		-0.64509966		 0.00082534		 0.00102802		 0.00040091	
H		8.54744052		8.94999494		1.14889956		-0.00098302		-0.00089806		 0.00058938	
H		9.53095804		8.94999494		2.64109989		 0.00098302		 0.00089806		-0.00058938	
