# total energy = -24716.2862368 eV	

CRYSTAL	
PRIMVEC	
		10.25410262		0.00000000		0.00000000	
		0.00000000		8.66010237		0.00000000	
		-1.81368415		0.00000000		4.98419115	
PRIMCOORD
   40 1	
Mg		-0.45342206		7.83046241		1.24604779		-0.00000000		 0.00043557		 0.00000001	
Mg		-1.36026721		0.82963688		3.73814336		0.00000000		-0.00043557		-0.00000001	
Mg		4.67362925		3.50041327		1.24604779		 0.00000001		 0.00045468		-0.00000001	
Mg		3.76678512		5.15968704		3.73814336		-0.00000001		-0.00045468		 0.00000001	
Mg		-0.45342206		2.47332442		1.24604779		-0.00000000		-0.00080616		-0.00000000	
Mg		-1.36026721		6.18677487		3.73814336		0.00000000		 0.00080616		0.00000000	
Mg		4.67362925		6.80337457		1.24604779		-0.00000000		-0.00075670		 0.00000001	
Mg		3.76678512		1.85672472		3.73814336		0.00000000		 0.00075670		-0.00000001	
Si		2.55093259		0.79655612		1.22461569		-0.00049710		-0.00056043		-0.00030662	
Si		5.88948075		7.86354419		3.75957444		 0.00049710		 0.00056043		 0.00030662	
Si		6.79632488		0.79655612		1.26747989		 0.00049723		-0.00056059		 0.00030668	
Si		1.64408847		7.86354419		3.71671126		-0.00049723		 0.00056059		-0.00030668	
Si		7.67798493		5.12660628		1.22461569		-0.00015205		-0.00032627		-0.00018564	
Si		0.76242944		3.53349403		3.75957444		 0.00015205		 0.00032627		 0.00018564	
Si		1.66927357		5.12660628		1.26747989		 0.00015216		-0.00032638		 0.00018571	
Si		6.77113978		3.53349403		3.71671126		-0.00015216		 0.00032638		-0.00018571	
O		0.90842531		0.71705607		0.68781752		-0.00047217		 0.00004401		 0.00002105	
O		7.53199009		7.94304220		4.29637261		 0.00047217		-0.00004401		-0.00002105	
O		8.43883319		0.71705607		1.80427703		 0.00047212		 0.00004404		-0.00002111	
O		0.00158016		7.94304220		3.17991412		-0.00047212		-0.00004404		 0.00002111	
O		6.03547559		5.04710725		0.68781752		-0.00063573		 0.00004278		-0.00007035	
O		2.40493775		3.61299409		4.29637261		 0.00063573		-0.00004278		 0.00007035	
O		3.31178188		5.04710725		1.80427703		 0.00063564		 0.00004279		 0.00007027	
O		5.12863044		3.61299409		3.17991412		-0.00063564		-0.00004279		-0.00007027	
O		3.15181993		2.23170802		1.58447419		 0.00015257		-0.00012884		 0.00019160	
O		5.28859342		6.42839229		3.39971696		-0.00015257		 0.00012884		-0.00019160	
O		6.19543754		2.23170802		0.90762138		-0.00015263		-0.00012868		-0.00019162	
O		2.24497580		6.42839229		4.07656977		 0.00015263		 0.00012868		 0.00019162	
O		8.27887124		6.56175715		1.58447419		-0.00001713		-0.00038316		 0.00012450	
O		0.16154313		2.09834214		3.39971696		 0.00001713		 0.00038316		-0.00012450	
O		1.06838726		6.56175715		0.90762138		 0.00001706		-0.00038301		-0.00012452	
O		7.37202711		2.09834214		4.07656977		-0.00001706		 0.00038301		 0.00012452	
O		3.58623499		0.05629092		0.12859157		 0.00021521		-0.00013608		 0.00003510	
O		4.85417733		8.60380837		4.85559855		-0.00021521		 0.00013608		-0.00003510	
O		5.76102248		0.05629092		2.36350400		-0.00021519		-0.00013607		-0.00003511	
O		2.67939086		8.60380837		2.62068817		 0.00021519		 0.00013607		 0.00003511	
O		8.71328629		4.38634108		0.12859157		 0.00018841		-0.00015767		-0.00000986	
O		-0.27287295		4.27375924		4.85559855		-0.00018841		 0.00015767		 0.00000986	
O		0.63397220		4.38634108		2.36350400		-0.00018840		-0.00015764		 0.00000986	
O		7.80644320		4.27375924		2.62068817		 0.00018840		 0.00015764		-0.00000986	
