# total energy = -24712.8356807 eV	

CRYSTAL	
PRIMVEC	
		8.82329796		0.00000000		0.00000000	
		0.00000000		8.66010224		0.00000000	
		-1.56061200		0.00000000		4.98419278	
PRIMCOORD
   40 1	
Mg		-0.39015388		7.83046253		1.24604820		-0.00000608		 0.00074314		 0.00000751	
Mg		-1.17046165		0.82963706		3.73814282		 0.00000608		-0.00074314		-0.00000751	
Mg		4.02149510		3.50041318		1.24604820		-0.00000598		 0.00072257		 0.00000694	
Mg		3.24118733		5.15968730		3.73814282		 0.00000598		-0.00072257		-0.00000694	
Mg		-0.39015388		2.47332483		1.24604820		 0.00000419		 0.00028388		 0.00001110	
Mg		-1.17046165		6.18677477		3.73814282		-0.00000419		-0.00028388		-0.00001110	
Mg		4.02149510		6.80337506		1.24604820		 0.00000420		 0.00025569		 0.00001137	
Mg		3.24118733		1.85672541		3.73814282		-0.00000420		-0.00025569		-0.00001137	
Si		2.19498860		0.79655587		1.22461641		 0.00061171		-0.00007499		 0.00023432	
Si		5.06769295		7.86354372		3.75957461		-0.00061171		 0.00007499		-0.00023432	
Si		5.84800071		0.79655587		1.26747999		-0.00036043		-0.00033665		-0.00000608	
Si		1.41468083		7.86354372		3.71671103		 0.00036043		 0.00033665		 0.00000608	
Si		6.60663758		5.12660611		1.22461641		 0.00056111		-0.00010149		 0.00018557	
Si		0.65604397		3.53349437		3.75957461		-0.00056111		 0.00010149		-0.00018557	
Si		1.43635173		5.12660611		1.26747999		-0.00033712		-0.00033853		 0.00001919	
Si		5.82632981		3.53349437		3.71671103		 0.00033712		 0.00033853		-0.00001919	
O		0.78166832		0.71705619		0.68781843		-0.00000007		-0.00000060		 0.00045307	
O		6.48101411		7.94304340		4.29637259		 0.00000007		 0.00000060		-0.00045307	
O		7.26132187		0.71705619		1.80427708		-0.00021109		 0.00001144		-0.00054249	
O		0.00135967		7.94304340		3.17991394		 0.00021109		-0.00001144		 0.00054249	
O		5.19331642		5.04710731		0.68781843		 0.00002009		-0.00000150		 0.00044005	
O		2.06936513		3.61299405		4.29637259		-0.00002009		 0.00000150		-0.00044005	
O		2.84967289		5.04710731		1.80427708		-0.00020997		 0.00001042		-0.00052204	
O		4.41300777		3.61299405		3.17991394		 0.00020997		-0.00001042		 0.00052204	
O		2.71203121		2.23170763		1.58447373		 0.00017104		 0.00002060		-0.00064580	
O		4.55065033		6.42839284		3.39971729		-0.00017104		-0.00002060		 0.00064580	
O		5.33095810		2.23170763		0.90762090		-0.00024957		 0.00025938		 0.00051198	
O		1.93172256		6.42839284		4.07657012		 0.00024957		-0.00025938		-0.00051198	
O		7.12368019		6.56175699		1.58447373		 0.00019530		 0.00006873		-0.00058153	
O		0.13900224		2.09834172		3.39971729		-0.00019530		-0.00006873		 0.00058153	
O		0.91931000		6.56175699		0.90762090		-0.00026606		 0.00028395		 0.00046022	
O		6.34337154		2.09834172		4.07657012		 0.00026606		-0.00028395		-0.00046022	
O		3.08583023		0.05629088		0.12859163		 0.00028519		 0.00011837		 0.00004730	
O		4.17685131		8.60380872		4.85559939		-0.00028519		-0.00011837		-0.00004730	
O		4.95715908		0.05629088		2.36350388		-0.00026682		 0.00014296		-0.00006557	
O		2.30552158		8.60380872		2.62068802		 0.00026682		-0.00014296		 0.00006557	
O		7.49747921		4.38634111		0.12859163		 0.00026939		 0.00009405		 0.00005190	
O		-0.23479678		4.27375936		4.85559939		-0.00026939		-0.00009405		-0.00005190	
O		0.54551010		4.38634111		2.36350388		-0.00025236		 0.00011718		-0.00006810	
O		6.71717232		4.27375936		2.62068802		 0.00025236		-0.00011718		 0.00006810	
