# total energy = -24710.9585043 eV	

CRYSTAL	
PRIMVEC	
		8.58483007		0.00000000		0.00000000	
		0.00000000		8.66010186		0.00000000	
		-1.51843323		0.00000000		4.98418923	
PRIMCOORD
   40 1	
Mg		-0.37960917		7.83046303		1.24604774		 0.00000074		 0.00033390		-0.00000140	
Mg		-1.13882836		0.82963712		3.73814321		-0.00000074		-0.00033390		 0.00000140	
Mg		3.91280587		3.50041295		1.24604774		-0.00000218		 0.00033523		-0.00000203	
Mg		3.15358668		5.15968719		3.73814321		 0.00000218		-0.00033523		 0.00000203	
Mg		-0.37960917		2.47332474		1.24604774		 0.00000816		 0.00041101		 0.00000180	
Mg		-1.13882836		6.18677540		3.73814321		-0.00000816		-0.00041101		-0.00000180	
Mg		3.91280587		6.80337482		1.24604774		 0.00000679		 0.00040042		 0.00000458	
Mg		3.15358668		1.85672533		3.73814321		-0.00000679		-0.00040042		-0.00000458	
Si		2.13566535		0.79655634		1.22461571		 0.00063789		-0.00037069		 0.00079031	
Si		4.93072806		7.86354381		3.75957524		-0.00063789		 0.00037069		-0.00079031	
Si		5.68994725		0.79655634		1.26747976		-0.00044798		-0.00056099		-0.00061536	
Si		1.37644615		7.86354381		3.71671118		 0.00044798		 0.00056099		 0.00061536	
Si		6.42808038		5.12660641		1.22461571		 0.00039309		-0.00046382		 0.00065985	
Si		0.63831302		3.53349374		3.75957524		-0.00039309		 0.00046382		-0.00065985	
Si		1.39753221		5.12660641		1.26747976		-0.00029614		-0.00056997		-0.00056792	
Si		5.66886205		3.53349374		3.71671118		 0.00029614		 0.00056997		 0.00056792	
O		0.76054126		0.71705566		0.68781830		 0.00014988		-0.00005610		 0.00006105	
O		6.30585215		7.94304277		4.29637264		-0.00014988		 0.00005610		-0.00006105	
O		7.06507048		0.71705566		1.80427717		-0.00032008		-0.00005029		-0.00012976	
O		0.00132292		7.94304277		3.17991378		 0.00032008		 0.00005029		 0.00012976	
O		5.05295629		5.04710745		0.68781830		 0.00035638		-0.00004282		 0.00011983	
O		2.01343625		3.61299442		4.29637264		-0.00035638		 0.00004282		-0.00011983	
O		2.77265545		5.04710745		1.80427717		-0.00045009		-0.00003470		-0.00016243	
O		4.29373796		3.61299442		3.17991378		 0.00045009		 0.00003470		 0.00016243	
O		2.63873296		2.23170813		1.58447376		-0.00046097		-0.00011226		-0.00025832	
O		4.42766045		6.42839287		3.39971719		 0.00046097		 0.00011226		 0.00025832	
O		5.18687793		2.23170813		0.90762086		 0.00040925		 0.00005550		 0.00017078	
O		1.87951376		6.42839287		4.07657009		-0.00040925		-0.00005550		-0.00017078	
O		6.93114799		6.56175735		1.58447376		-0.00041853		-0.00001034		-0.00019099	
O		0.13524541		2.09834194		3.39971719		 0.00041853		 0.00001034		 0.00019099	
O		0.89446375		6.56175735		0.90762086		 0.00039201		 0.00008070		 0.00014479	
O		6.17192966		2.09834194		4.07657009		-0.00039201		-0.00008070		-0.00014479	
O		3.00243014		0.05629073		0.12859217		-0.00021478		 0.00060438		 0.00010836	
O		4.06396327		8.60380942		4.85559878		 0.00021478		-0.00060438		-0.00010836	
O		4.82318246		0.05629073		2.36350416		 0.00022762		 0.00062724		-0.00012591	
O		2.24321095		8.60380942		2.62068764		-0.00022762		-0.00062724		 0.00012591	
O		7.29484518		4.38634080		0.12859217		-0.00019993		 0.00061823		 0.00012229	
O		-0.22845177		4.27375934		4.85559878		 0.00019993		-0.00061823		-0.00012229	
O		0.53076742		4.38634080		2.36350416		 0.00020973		 0.00063266		-0.00012802	
O		6.53562598		4.27375934		2.62068764		-0.00020973		-0.00063266		 0.00012802	
