# total energy = -14248.8619018 eV

CRYSTAL
PRIMVEC
		7.72999786		0.61839828		0.00000000
		0.61839828		7.72999786		0.00000000
		0.00000000		0.00000000		5.00999927
PRIMECORD
   24 1
Ca		2.65602778		1.51817184		2.55509963		 0.00057564		-0.00057564		-0.00023686
Ca		5.69237224		6.83022817		2.55509963		-0.00057564		 0.00057564		-0.00023686
Ca		1.72842803		5.28422783		2.45489964		 0.00024136		 0.00024136		-0.00005088
Ca		6.61997198		3.06417219		2.45489964		-0.00024136		-0.00024136		-0.00005088
Si		1.30482386		2.86937576		4.75950008		 0.00016708		-0.00016708		-0.00000295
Si		7.04357616		5.47902425		4.75950008		-0.00016708		 0.00016708		-0.00000295
Si		3.31462408		6.87042387		0.25049996		-0.00010872		-0.00010872		-0.00019454
Si		5.03377594		1.47797615		0.25049996		 0.00010872		 0.00010872		-0.00019454
Mg		0.00000000		0.00000000		0.00000000		0.00000000		0.00000000		-0.00019948
Mg		4.17420040		4.17420040		0.00000000		0.00000000		0.00000000		-0.00019948
O		3.86499971		0.30919991		0.95189986		0.00000000		0.00000000		-0.00040668
O		0.30919991		3.86499971		4.05810018		0.00000000		0.00000000		 0.00093311
O		1.30482386		2.86937576		1.30259981		 0.00004447		-0.00004447		-0.00010060
O		7.04357616		5.47902425		1.30259981		-0.00004447		 0.00004447		-0.00010060
O		3.31462408		6.87042387		3.70740023		-0.00026019		-0.00026019		-0.00025417
O		5.03377594		1.47797615		3.70740023		 0.00026019		 0.00026019		-0.00025417
O		0.72971229		1.44087225		4.05810018		-0.00035956		-0.00012957		 0.00013056
O		7.61868772		6.90752776		4.05810018		 0.00035956		 0.00012957		 0.00013056
O		1.96032836		7.22291205		0.95189986		 0.00009141		-0.00015939		 0.00025757
O		6.38807166		1.12548797		0.95189986		-0.00009141		 0.00015939		 0.00025757
O		3.66711226		5.51612815		0.95189986		-0.00015939		 0.00009141		 0.00025757
O		4.68128776		2.83227187		0.95189986		 0.00015939		-0.00009141		 0.00025757
O		2.73332814		3.44448810		4.05810018		 0.00012957		 0.00035956		 0.00013056
O		5.61507187		4.90391192		4.05810018		-0.00012957		-0.00035956		 0.00013056
