# total energy = -14247.0609159 eV

CRYSTAL
PRIMVEC
		7.73000130		-0.92759829		0.00000000
		-0.92759829		7.73000130		0.00000000
		0.00000000		0.00000000		5.00999615
PRIMECORD
   24 1
Ca		2.39320825		1.00799170		2.55509983		-0.00012649		 0.00012649		 0.00052536
Ca		4.40919165		5.79440820		2.55509983		 0.00012649		-0.00012649		 0.00052536
Ca		0.69260828		5.02140807		2.45490022		-0.00027954		-0.00027954		 0.00052135
Ca		6.10979240		1.78099183		2.45490022		 0.00027954		 0.00027954		 0.00052135
Si		0.74826418		2.65293577		4.75949985		 0.00008640		-0.00008640		 0.00006575
Si		6.05413572		4.14946413		4.75949985		-0.00008640		 0.00008640		 0.00006575
Si		1.98506423		6.31386402		0.25050020		 0.00006435		 0.00006435		-0.00011646
Si		4.81733567		0.48853588		0.25050020		-0.00006435		-0.00006435		-0.00011646
Mg		0.00000000		0.00000000		0.00000000		0.00000000		0.00000000		 0.00063869
Mg		3.40119995		3.40119995		0.00000000		0.00000000		0.00000000		 0.00063869
O		3.86499987		-0.46379992		0.95189981		0.00000000		0.00000000		-0.00082169
O		-0.46379992		3.86499987		4.05810023		0.00000000		0.00000000		-0.00064190
O		0.74826418		2.65293577		1.30259962		 0.00014534		-0.00014534		-0.00001943
O		6.05413572		4.14946413		1.30259962		-0.00014534		 0.00014534		-0.00001943
O		1.98506423		6.31386402		3.70739964		 0.00078549		 0.00078549		-0.00009809
O		4.81733567		0.48853588		3.70739964		-0.00078549		-0.00078549		-0.00009809
O		0.45143195		1.31719190		4.05810023		 0.00019304		 0.00018622		-0.00038778
O		6.35096795		5.48520800		4.05810023		-0.00019304		-0.00018622		-0.00038778
O		0.53800779		6.94463242		0.95189981		-0.00002740		 0.00019337		-0.00000491
O		6.26439211		-0.14223174		0.95189981		 0.00002740		-0.00019337		-0.00000491
O		2.61583184		4.86680836		0.95189981		 0.00019337		-0.00002740		-0.00000491
O		4.18656806		1.93559232		0.95189981		-0.00019337		 0.00002740		-0.00000491
O		2.08400805		2.94976800		4.05810023		-0.00018622		-0.00019304		-0.00038778
O		4.71839185		3.85263189		4.05810023		 0.00018622		 0.00019304		-0.00038778
