# total energy = -22451.7495033 eV

CRYSTAL
PRIMVEC
		9.05300144		0.00000000		1.08635798
		0.00000000		7.67700270		0.00000000
		0.04198815		0.00000000		4.65898907
PRIMECORD
   40 1
Ca		6.69666731		0.51819764		1.22292115		-0.00021275		 0.00063637		 0.00038935
Ca		2.39832319		7.15880324		4.52242591		 0.00021275		-0.00063637		-0.00038935
Ca		2.37732821		4.35669716		2.19293228		 0.00021275		 0.00063637		-0.00038935
Ca		6.71766139		3.32030280		3.55241386		-0.00021275		-0.00063637		 0.00038935
Mg		2.20775624		1.25979596		2.14140220		-0.00003470		 0.00000006		-0.00050360
Mg		6.88723426		6.41720401		3.60394395		 0.00003470		-0.00000006		 0.00050360
Mg		6.86623927		5.09829639		1.27445123		 0.00003470		 0.00000006		 0.00050360
Mg		2.22875123		2.57870357		4.47089491		-0.00003470		-0.00000006		-0.00050360
Si		4.64370101		1.27438194		2.71062570		 0.00023156		 0.00042098		-0.00018412
Si		4.45128858		6.40261803		3.03471953		-0.00023156		-0.00042098		 0.00018412
Si		4.43029360		5.11288237		0.70522682		-0.00023156		 0.00042098		 0.00018412
Si		4.66469599		2.56411759		5.04011932		 0.00023156		-0.00042098		-0.00018412
Si		0.29713480		6.55846109		1.26150557		-0.00032105		-0.00001377		 0.00087377
Si		8.79785479		1.11853887		4.48383966		 0.00032105		 0.00001377		-0.00087377
Si		8.77685981		2.71996065		2.15434695		 0.00032105		-0.00001377		-0.00087377
Si		0.31812887		4.95703931		3.59099919		-0.00032105		 0.00001377		 0.00087377
O		3.56890732		1.29971616		0.95369913		 0.00024232		 0.00047893		 0.00028416
O		5.52608319		6.37728381		4.79164702		-0.00024232		-0.00047893		-0.00028416
O		5.50508820		5.13821568		2.46215430		-0.00024232		 0.00047893		-0.00028416
O		3.58990139		2.53878428		3.28319275		 0.00024232		-0.00047893		 0.00028416
O		3.54603677		3.70875932		0.82436832		 0.00060757		-0.00070010		 0.00023894
O		5.54895191		3.96824064		4.92097782		-0.00060757		 0.00070010		-0.00023894
O		5.52795784		7.54725885		2.59148511		-0.00060757		-0.00070010		-0.00023894
O		3.56703175		0.12974111		3.15386103		 0.00060757		 0.00070010		 0.00023894
O		5.58244031		2.25089599		1.91389297		 0.00065121		 0.00078418		 0.00020207
O		3.51254928		5.42610397		3.83145318		-0.00065121		-0.00078418		-0.00020207
O		3.49155520		6.08939734		1.50195955		-0.00065121		 0.00078418		-0.00020207
O		5.60343530		1.58760444		4.24338568		 0.00065121		-0.00078418		 0.00020207
O		1.29915632		2.69923282		1.16487537		 0.00040999		-0.00024287		 0.00000240
O		7.79583419		4.97776714		4.58047168		-0.00040999		 0.00024287		-0.00000240
O		7.77483920		6.53773326		2.25097897		-0.00040999		-0.00024287		-0.00000240
O		1.32015039		1.13926670		3.49436717		 0.00040999		 0.00024287		 0.00000240
O		0.96432336		0.22186522		1.03859726		-0.00065549		-0.00067487		-0.00057775
O		8.13066623		7.45513474		4.70674980		 0.00065549		 0.00067487		 0.00057775
O		8.10967215		4.06036566		2.37725709		 0.00065549		-0.00067487		 0.00057775
O		0.98531835		3.61663522		3.36808997		-0.00065549		 0.00067487		-0.00057775
O		0.98245258		5.44299314		0.44134427		-0.00000994		 0.00060476		 0.00012801
O		8.11253701		2.23400682		5.30400278		 0.00000994		-0.00060476		-0.00012801
O		8.09154203		1.60449271		2.97450916		 0.00000994		 0.00060476		-0.00012801
O		1.00344665		6.07250726		2.77083698		-0.00000994		-0.00060476		 0.00012801
