# total energy = -22449.5928102 eV

CRYSTAL
PRIMVEC
		9.05299733		0.00000000		-0.72423797
		0.00000000		7.67700422		0.00000000
		-0.90239806		0.00000000		4.76391376
PRIMECORD
   40 1
Ca		6.61157656		0.51819819		-0.10620219		 0.00015399		 0.00062786		 0.00069892
Ca		1.53902362		7.15880330		4.14587708		-0.00015399		-0.00062786		-0.00069892
Ca		1.99022356		4.35669667		1.76391929		-0.00015399		 0.00062786		-0.00069892
Ca		6.16037662		3.32030301		2.27575469		 0.00015399		-0.00062786		 0.00069892
Mg		1.82697872		1.25979626		1.74554383		 0.00008186		-0.00003228		-0.00051317
Mg		6.32362147		6.41720433		2.29413014		-0.00008186		 0.00003228		 0.00051317
Mg		6.77482231		5.09829565		-0.08782674		-0.00008186		-0.00003228		 0.00051317
Mg		1.37577878		2.57870403		4.12750162		 0.00008186		 0.00003228		-0.00051317
Si		4.20673232		1.27438183		1.83432236		-0.00063157		 0.00002579		 0.00055981
Si		3.94386877		6.40261785		2.20535253		 0.00063157		-0.00002579		-0.00055981
Si		4.39506780		5.11288212		-0.17660436		 0.00063157		 0.00002579		-0.00055981
Si		3.75553329		2.56411756		4.21627924		-0.00063157		-0.00002579		 0.00055981
Si		0.04838304		6.55846093		1.23192929		 0.00027160		 0.00001493		-0.00069617
Si		8.10221805		1.11853875		2.80774560		-0.00027160		-0.00001493		 0.00069617
Si		8.55341799		2.71996064		0.42578781		-0.00027160		 0.00001493		 0.00069617
Si		-0.40281690		4.95703905		3.61388617		 0.00027160		-0.00001493		-0.00069617
O		3.46228526		1.29971585		0.25271269		-0.00021121		 0.00015906		-0.00056700
O		4.68831583		6.37728383		3.78696220		 0.00021121		-0.00015906		 0.00056700
O		5.13951486		5.13821615		1.40500532		 0.00021121		 0.00015906		 0.00056700
O		3.01108623		2.53878353		2.63466957		-0.00021121		-0.00015906		-0.00056700
O		3.46510338		3.70875866		0.12487190		 0.00066657		-0.00007146		-0.00030834
O		4.68549771		3.96824102		3.91480298		-0.00066657		 0.00007146		 0.00030834
O		5.13669765		7.54725896		1.53284519		-0.00066657		-0.00007146		 0.00030834
O		3.01390435		0.12974072		2.50682969		 0.00066657		 0.00007146		-0.00030834
O		5.33000457		2.25089565		0.82769742		-0.00035461		-0.00013164		 0.00067139
O		2.82059561		5.42610403		3.21197837		 0.00035461		 0.00013164		-0.00067139
O		3.27179464		6.08939685		0.83001967		 0.00035461		-0.00013164		-0.00067139
O		4.87880463		1.58760374		3.20965521		-0.00035461		 0.00013164		 0.00067139
O		1.09441171		2.69923296		0.92961295		-0.00050592		 0.00023879		-0.00022170
O		7.05618847		4.97776672		3.11006194		 0.00050592		-0.00023879		 0.00022170
O		7.50738750		6.53773326		0.72810505		 0.00050592		 0.00023879		 0.00022170
O		0.64321268		1.13926733		3.31156983		-0.00050592		-0.00023879		-0.00022170
O		0.77705117		0.22186503		0.86820462		 0.00020682		-0.00006200		-0.00044206
O		7.37354992		7.45513465		3.17147027		-0.00020682		 0.00006200		 0.00044206
O		7.82474986		4.06036623		0.78951339		-0.00020682		-0.00006200		 0.00044206
O		0.32585123		3.61663527		3.25016150		 0.00020682		 0.00006200		-0.00044206
O		0.91681834		5.44299278		0.25272904		 0.00082704		 0.00048951		 0.00024910
O		7.23378276		2.23400690		3.78694585		-0.00082704		-0.00048951		-0.00024910
O		7.68498269		1.60449339		1.40498806		-0.00082704		 0.00048951		-0.00024910
O		0.46561840		6.07250720		2.63468683		 0.00082704		-0.00048951		 0.00024910
