# total energy = -2552.69560807 eV	

CRYSTAL	
PRIMVEC	
		3.14200054		0.00000000		-0.37703931	
		-1.57099869		2.72105322		0.18852123	
		-0.57192127		0.00000000		4.76599897	
PRIMCOORD
   5 1	
Mg		0.00000000		0.00000000		0.00000000		0.00000000		0.00000000		0.00000000	
O		-0.12673704		1.81403516		1.05614613		-0.00007350		-0.00024610		-0.00078898	
O		1.12581699		0.90701711		3.52133414		 0.00007350		 0.00024610		 0.00078898	
H		-0.24609690		1.81403516		2.05080996		-0.00000194		 0.00008637		 0.00064889	
H		1.24517685		0.90701711		2.52666999		 0.00000194		-0.00008637		-0.00064889	
