# total energy = -49433.6977683 eV	

CRYSTAL	
PRIMVEC	
		18.23299940		0.00000000		0.00000000	
		0.00000000		8.81910125		0.00000000	
		0.00000000		0.00000000		5.18019569	
PRIMCOORD
   80 1	
Mg		6.86107767		5.76857458		4.48760609		-0.00030472		 0.00041139		 0.00023400	
Mg		11.37192172		3.05052666		0.69259325		 0.00030472		-0.00041139		-0.00023400	
Mg		2.25542203		3.05052666		1.89750642		 0.00030472		-0.00041139		 0.00023400	
Mg		15.97757737		5.76857458		3.28269291		-0.00030472		 0.00041139		-0.00023400	
Mg		11.37192172		1.35902214		3.28269291		 0.00030472		 0.00041139		-0.00023400	
Mg		6.86107767		7.46007729		1.89750642		-0.00030472		-0.00041139		 0.00023400	
Mg		15.97757737		7.46007729		0.69259325		-0.00030472		-0.00041139		-0.00023400	
Mg		2.25542203		1.35902214		4.48760609		 0.00030472		 0.00041139		 0.00023400	
Mg		6.87201747		4.29666648		1.85917337		-0.00035027		-0.00034101		-0.00017462	
Mg		11.36098192		4.52243295		3.32102597		 0.00035027		 0.00034101		 0.00017462	
Mg		2.24448223		4.52243295		4.44927304		 0.00035027		 0.00034101		-0.00017462	
Mg		15.98851717		4.29666648		0.73092630		-0.00035027		-0.00034101		 0.00017462	
Mg		11.36098192		8.70621528		0.73092630		 0.00035027		-0.00034101		 0.00017462	
Mg		6.87201747		0.11288415		4.44927304		-0.00035027		 0.00034101		-0.00017462	
Mg		15.98851717		0.11288415		3.32102597		-0.00035027		 0.00034101		 0.00017462	
Mg		2.24448223		8.70621528		1.85917337		 0.00035027		-0.00034101		-0.00017462	
Si		4.95025934		3.01436880		0.26211760		-0.00032074		-0.00035207		-0.00047725	
Si		13.28274006		5.80473244		4.91808174		 0.00032074		 0.00035207		 0.00047725	
Si		4.16624036		5.80473244		2.85221727		 0.00032074		 0.00035207		-0.00047725	
Si		14.06675903		3.01436880		2.32798207		-0.00032074		-0.00035207		 0.00047725	
Si		13.28274006		7.42391760		2.32798207		 0.00032074		-0.00035207		 0.00047725	
Si		4.95025934		1.39518182		2.85221727		-0.00032074		 0.00035207		-0.00047725	
Si		14.06675903		1.39518182		4.91808174		-0.00032074		 0.00035207		 0.00047725	
Si		4.16624036		7.42391760		0.26211760		 0.00032074		-0.00035207		-0.00047725	
Si		8.63514851		2.97556351		4.13431803		-0.00004408		 0.00016703		-0.00019607	
Si		9.59785088		5.84353591		1.04588131		 0.00004408		-0.00016703		 0.00019607	
Si		0.48135118		5.84353591		1.54421836		 0.00004408		-0.00016703		-0.00019607	
Si		17.75164821		2.97556351		3.63598098		-0.00004408		 0.00016703		 0.00019607	
Si		9.59785088		7.38511413		3.63598098		 0.00004408		 0.00016703		 0.00019607	
Si		8.63514851		1.43398529		1.54421836		-0.00004408		-0.00016703		-0.00019607	
Si		17.75164821		1.43398529		1.04588131		-0.00004408		-0.00016703		 0.00019607	
Si		0.48135118		7.38511413		4.13431803		 0.00004408		 0.00016703		-0.00019607	
O		3.34575539		3.00466702		0.17612713		-0.00013402		 0.00061249		-0.00016903	
O		14.88724401		5.81443240		5.00407221		 0.00013402		-0.00061249		 0.00016903	
O		5.77074431		5.81443240		2.76622680		 0.00013402		-0.00061249		-0.00016903	
O		12.46225509		3.00466702		2.41397254		-0.00013402		 0.00061249		 0.00016903	
O		14.88724401		7.41421765		2.41397254		 0.00013402		 0.00061249		 0.00016903	
O		3.34575539		1.40488360		2.76622680		-0.00013402		-0.00061249		-0.00016903	
O		12.46225509		1.40488360		5.00407221		-0.00013402		-0.00061249		 0.00016903	
O		5.77074431		7.41421765		0.17612713		 0.00013402		 0.00061249		-0.00016903	
O		5.67775601		4.43512605		0.22274891		 0.00035782		-0.00077682		-0.00001989	
O		12.55524338		4.38397519		4.95745225		-0.00035782		 0.00077682		 0.00001989	
O		3.43874369		4.38397519		2.81284858		-0.00035782		 0.00077682		-0.00001989	
O		14.79425571		4.43512605		2.36735076		 0.00035782		-0.00077682		 0.00001989	
O		12.55524338		0.02557543		2.36735076		-0.00035782		-0.00077682		 0.00001989	
O		5.67775601		8.79352399		2.81284858		 0.00035782		 0.00077682		-0.00001989	
O		14.79425571		8.79352399		4.95745225		 0.00035782		 0.00077682		 0.00001989	
O		3.43874369		0.02557543		0.22274891		-0.00035782		-0.00077682		-0.00001989	
O		5.51548232		1.96136750		4.30992734		-0.00067735		-0.00009256		-0.00041830	
O		12.71751708		6.85773192		0.87027382		 0.00067735		 0.00009256		 0.00041830	
O		3.60101738		6.85773192		1.71982767		 0.00067735		 0.00009256		-0.00041830	
O		14.63198202		1.96136750		3.46037349		-0.00067735		-0.00009256		 0.00041830	
O		12.71751708		6.37091813		3.46037349		 0.00067735		-0.00009256		 0.00041830	
O		5.51548232		2.44818129		1.71982767		-0.00067735		 0.00009256		-0.00041830	
O		14.63198202		2.44818129		0.87027382		-0.00067735		 0.00009256		 0.00041830	
O		3.60101738		6.37091813		4.30992734		 0.00067735		-0.00009256		-0.00041830	
O		10.25059226		3.01084072		4.13380021		 0.00012498		-0.00011828		 0.00016591	
O		7.98240714		5.80825871		1.04640095		-0.00012498		 0.00011828		-0.00016591	
O		17.09890683		5.80825871		1.54370054		-0.00012498		 0.00011828		 0.00016591	
O		1.13409256		3.01084072		3.63650062		 0.00012498		-0.00011828		-0.00016591	
O		7.98240714		7.42039134		3.63650062		-0.00012498		-0.00011828		-0.00016591	
O		10.25059226		1.39870808		1.54370054		 0.00012498		 0.00011828		 0.00016591	
O		1.13409256		1.39870808		1.04640095		 0.00012498		 0.00011828		-0.00016591	
O		17.09890683		7.42039134		4.13380021		-0.00012498		-0.00011828		 0.00016591	
O		7.88394894		4.26491735		3.57433703		 0.00003398		-0.00012408		-0.00023606	
O		10.34905046		4.55418207		1.60586231		-0.00003398		 0.00012408		 0.00023606	
O		1.23255076		4.55418207		0.98423736		-0.00003398		 0.00012408		-0.00023606	
O		17.00044864		4.26491735		4.19596197		 0.00003398		-0.00012408		 0.00023606	
O		10.34905046		8.67446615		4.19596197		-0.00003398		-0.00012408		 0.00023606	
O		7.88394894		0.14463327		0.98423736		 0.00003398		 0.00012408		-0.00023606	
O		17.00044864		0.14463327		1.60586231		 0.00003398		 0.00012408		 0.00023606	
O		1.23255076		8.67446615		3.57433703		-0.00003398		-0.00012408		-0.00023606	
O		8.17385363		1.72060622		3.12366105		-0.00016917		-0.00075540		 0.00027236	
O		10.05914577		7.09849320		2.05654011		 0.00016917		 0.00075540		-0.00027236	
O		0.94264607		7.09849320		0.53356138		 0.00016917		 0.00075540		 0.00027236	
O		17.29035333		1.72060622		4.64663978		-0.00016917		-0.00075540		-0.00027236	
O		10.05914577		6.13015684		4.64663978		 0.00016917		-0.00075540		-0.00027236	
O		8.17385363		2.68894441		0.53356138		-0.00016917		 0.00075540		 0.00027236	
O		17.29035333		2.68894441		2.05654011		-0.00016917		 0.00075540		-0.00027236	
O		0.94264607		6.13015684		3.12366105		 0.00016917		-0.00075540		 0.00027236	
