# total energy = -20637.4679619 eV

CRYSTAL
PRIMVEC
		10.20140705		-0.81611052		0.00000000
		-0.47867499		5.98348345		0.00000000
		0.00000000		0.00000000		4.75534177
PRIMECORD
   28 1
Mg		0.00000000		0.00000000		0.00000000		-0.00000000		-0.00000000		0.00000000
Mg		5.10070455		-0.40805628		2.37766986		0.00000000		0.00000000		0.00000000
Mg		-0.23933852		2.99173968		0.00000000		0.00000000		0.00000000		0.00000000
Mg		4.86136603		2.58368442		2.37766986		-0.00000000		-0.00000000		-0.00000000
Mg		2.70918092		1.26956176		4.71491950		 0.00036409		 0.00077752		-0.00045071
Mg		7.01355012		3.89780503		0.04042022		-0.00036409		-0.00077752		 0.00045071
Mg		1.91284454		4.30586234		2.33724964		-0.00036409		-0.00077752		-0.00045071
Mg		7.80988649		0.86150548		2.41809008		 0.00036409		 0.00077752		 0.00045071
Si		0.83926290		1.41915525		2.02767721		 0.00030717		 0.00033539		 0.00005473
Si		8.88346916		3.74821155		2.72766251		-0.00030717		-0.00033539		-0.00005473
Si		3.78276359		4.15626783		4.40534707		-0.00030717		-0.00033539		 0.00005473
Si		5.93996745		1.01109896		0.34999265		 0.00030717		 0.00033539		-0.00005473
O		0.81478010		1.42111403		3.63926241		 0.00053372		-0.00011031		 0.00028532
O		8.90795196		3.74625276		1.11607834		-0.00053372		 0.00011031		-0.00028532
O		3.80724741		4.15431007		1.26159152		-0.00053372		 0.00011031		 0.00028532
O		5.91548465		1.01305775		3.49374820		 0.00053372		-0.00011031		-0.00028532
O		4.43934136		1.13114893		1.05140558		 0.00022778		 0.00008063		-0.00005582
O		5.28339070		4.03621787		3.70393516		-0.00022778		-0.00008063		 0.00005582
O		0.18268615		4.44427415		3.42907647		-0.00022778		-0.00008063		-0.00005582
O		9.54004591		0.72309265		1.32626428		 0.00022778		 0.00008063		 0.00005582
O		1.64387654		0.06587013		1.32103266		-0.00026965		 0.00013342		 0.00005799
O		8.07885450		5.10149666		3.43430706		 0.00026965		-0.00013342		-0.00005799
O		2.97814892		5.50955294		3.69870251		 0.00026965		-0.00013342		 0.00005799
O		6.74458211		-0.34218615		1.05663720		-0.00026965		 0.00013342		-0.00005799
O		8.28641030		2.50706040		3.43430706		 0.00025027		-0.00003324		-0.00000041
O		1.43632176		2.66030742		1.32103266		-0.00025027		 0.00003324		 0.00000041
O		6.53702734		2.25225114		1.05663720		-0.00025027		 0.00003324		-0.00000041
O		3.18570370		2.91511668		3.69870251		 0.00025027		-0.00003324		 0.00000041
