# total energy = -20638.4946874 eV

CRYSTAL
PRIMVEC
		10.20141015		-0.40805600		0.00000000
		-0.23934289		5.98348044		0.00000000
		0.00000000		0.00000000		4.75534093
PRIMECORD
   28 1
Mg		0.00000000		0.00000000		0.00000000		-0.00000000		-0.00000000		0.00000000
Mg		5.10070507		-0.20402800		2.37766944		0.00000000		0.00000000		0.00000000
Mg		-0.11967043		2.99174022		0.00000000		-0.00000000		-0.00000000		-0.00000000
Mg		4.98103567		2.78771222		2.37766944		0.00000000		0.00000000		-0.00000000
Mg		2.76901544		1.38271645		4.71492023		-0.00015410		-0.00069175		-0.00003804
Mg		7.19305488		4.19270799		0.04041968		 0.00015410		 0.00069175		 0.00003804
Mg		2.09234980		4.39673599		2.33724976		 0.00015410		 0.00069175		-0.00003804
Mg		7.86972052		1.17868845		2.41809014		-0.00015410		-0.00069175		 0.00003804
Si		0.89909842		1.45751276		2.02767730		 0.00022400		-0.00017171		-0.00017041
Si		9.06297394		4.11791066		2.72766261		-0.00022400		 0.00017171		 0.00017041
Si		3.96226784		4.32193866		4.40534674		-0.00022400		 0.00017171		-0.00017041
Si		5.99980248		1.25348375		0.34999317		 0.00022400		-0.00017171		 0.00017041
O		0.87461384		1.45849186		3.63926163		 0.00032200		 0.00020715		 0.00007759
O		9.08745648		4.11693156		1.11607828		-0.00032200		-0.00020715		-0.00007759
O		3.98675141		4.32095956		1.26159218		-0.00032200		-0.00020715		 0.00007759
O		5.97531993		1.25446386		3.49374772		 0.00032200		 0.00020715		-0.00007759
O		4.49917573		1.31350988		1.05140577		-0.00023597		 0.00011944		-0.00008418
O		5.46289561		4.26191355		3.70393515		 0.00023597		-0.00011944		 0.00008418
O		0.36218952		4.46594154		3.42907624		 0.00023597		-0.00011944		-0.00008418
O		9.59988080		1.10948086		1.32626367		-0.00023597		 0.00011944		 0.00008418
O		1.65182330		0.13226086		1.32103331		 0.00026960		-0.00076542		-0.00046624
O		8.31024804		5.44316256		3.43430660		-0.00026960		 0.00076542		 0.00046624
O		3.20954297		5.64719056		3.69870275		-0.00026960		 0.00076542		-0.00046624
O		6.75252837		-0.07176713		1.05663716		 0.00026960		-0.00076542		 0.00046624
O		8.41402523		2.84872562		3.43430660		 0.00039021		 0.00012095		-0.00030297
O		1.54804611		2.72669780		1.32103331		-0.00039021		-0.00012095		 0.00030297
O		6.64875118		2.52266878		1.05663716		-0.00039021		-0.00012095		-0.00030297
O		3.31332016		3.05275362		3.69870275		 0.00039021		 0.00012095		 0.00030297
