# total energy = -49447.0104333 eV

CRYSTAL
PRIMVEC
		14.72519963		0.00000000		0.00000000
		0.00000000		5.10899636		0.00000000
		0.00000000		0.00000000		8.73300052
PRIMECORD
   70 1
Mg		2.54893206		1.67524031		0.04628572		-0.00025117		-0.00020738		 0.00018888
Mg		12.17626757		3.43375899		0.04628572		 0.00025117		 0.00020738		 0.00018888
Mg		9.91153187		0.87925934		4.41278451		-0.00025117		 0.00020738		 0.00018888
Mg		4.81366776		4.22974144		4.41278451		 0.00025117		-0.00020738		 0.00018888
Mg		2.61372293		4.27010174		1.53002187		-0.00012203		-0.00020877		-0.00000680
Mg		12.11147669		0.83889757		1.53002187		 0.00012203		 0.00020877		-0.00000680
Mg		9.97632275		3.39339722		5.89652065		-0.00012203		 0.00020877		-0.00000680
Mg		4.74887688		1.71560209		5.89652065		 0.00012203		-0.00020877		-0.00000680
Mg		4.77096468		1.76822553		2.83123917		 0.00034329		 0.00014967		-0.00032234
Mg		9.95423495		3.34077525		2.83123917		-0.00034329		-0.00014967		-0.00032234
Mg		12.13356449		0.78627559		7.19773942		 0.00034329		-0.00014967		-0.00032234
Mg		2.59163513		4.32272519		7.19773942		-0.00034329		 0.00014967		-0.00032234
Mg		0.00000000		2.55449965		7.23616336		0.00000000		0.00000000		 0.00001798
Mg		7.36259981		0.00000000		2.86966457		0.00000000		0.00000000		 0.00001798
Mg		0.00000000		2.55449965		1.63307029		0.00000000		0.00000000		 0.00028517
Mg		7.36259981		0.00000000		5.99957055		0.00000000		0.00000000		 0.00028517
Mg		0.00000000		0.00000000		5.78561339		0.00000000		0.00000000		 0.00020143
Mg		7.36259981		2.55449965		1.41911314		0.00000000		0.00000000		 0.00020143
Mg		0.00000000		0.00000000		3.01725083		0.00000000		0.00000000		-0.00090497
Mg		7.36259981		2.55449965		7.38375109		0.00000000		0.00000000		-0.00090497
Si		0.00000000		0.00000000		0.06724410		0.00000000		0.00000000		-0.00015617
Si		7.36259981		2.55449965		4.43374436		0.00000000		0.00000000		-0.00015617
Si		5.54551018		0.07203715		0.04453784		-0.00015851		-0.00019169		-0.00004130
Si		9.17968945		5.03696216		0.04453784		 0.00015851		 0.00019169		-0.00004130
Si		12.90810999		2.48246250		4.41103810		-0.00015851		 0.00019169		-0.00004130
Si		1.81708963		2.62653680		4.41103810		 0.00015851		-0.00019169		-0.00004130
O		6.11537541		3.62125938		8.67710808		 0.00024846		-0.00003211		-0.00046439
O		8.60982422		1.48774140		8.67710808		-0.00024846		 0.00003211		-0.00046439
O		13.47797522		4.04224106		4.31060929		 0.00024846		 0.00003211		-0.00046439
O		1.24722441		1.06675825		4.31060929		-0.00024846		-0.00003211		-0.00046439
O		1.15298313		3.54104827		0.04366463		-0.00005556		 0.00023370		-0.00058219
O		13.57221650		1.56795251		0.04366463		 0.00005556		-0.00023370		-0.00058219
O		8.51558294		4.12245216		4.41016489		-0.00005556		-0.00023370		-0.00058219
O		6.20961668		0.98654862		4.41016489		 0.00005556		 0.00023370		-0.00058219
O		3.67393731		0.11239745		3.01375801		 0.00022075		-0.00087462		 0.00011837
O		11.05126232		4.99660186		3.01375801		-0.00022075		 0.00087462		 0.00011837
O		11.03653712		2.44210220		7.38025827		 0.00022075		 0.00087462		 0.00011837
O		3.68866251		2.66689857		7.38025827		-0.00022075		-0.00087462		 0.00011837
O		3.75787094		2.61580802		1.41474564		 0.00014856		-0.00040830		 0.00032585
O		10.96732868		2.49319128		1.41474564		-0.00014856		 0.00040830		 0.00032585
O		11.12047223		5.04769241		5.78124590		 0.00014856		 0.00040830		 0.00032585
O		3.60472887		0.06130837		5.78124590		-0.00014856		-0.00040830		 0.00032585
O		1.11911517		0.73569601		1.33702162		-0.00045443		-0.00017844		 0.00072009
O		13.60608446		4.37330330		1.33702162		 0.00045443		 0.00017844		 0.00072009
O		8.48171499		1.81880365		5.70352188		-0.00045443		 0.00017844		 0.00072009
O		6.24348464		3.29019566		5.70352188		 0.00045443		-0.00017844		 0.00072009
O		6.32889080		3.30552312		3.16047254		 0.00015470		 0.00004019		-0.00010986
O		8.39630883		1.80347766		3.16047254		-0.00015470		-0.00004019		-0.00010986
O		13.69149209		4.35797731		7.52697133		 0.00015470		-0.00004019		-0.00010986
O		1.03370901		0.75102347		7.52697133		-0.00015470		 0.00004019		-0.00010986
O		6.10359525		0.78167691		1.39640688		 0.00044111		-0.00027964		-0.00012419
O		8.62160438		4.32732239		1.39640688		-0.00044111		 0.00027964		-0.00012419
O		13.46619506		1.77282274		5.76290714		 0.00044111		 0.00027964		-0.00012419
O		1.25900457		3.33617657		5.76290714		-0.00044111		-0.00027964		-0.00012419
O		1.30907025		3.49966457		3.03821068		-0.00031256		-0.00006846		 0.00036965
O		13.41612938		1.60933474		3.03821068		 0.00031256		 0.00006846		 0.00036965
O		8.67167006		4.16383439		7.40471094		-0.00031256		 0.00006846		 0.00036965
O		6.05352957		0.94516492		7.40471094		 0.00031256		-0.00006846		 0.00036965
O		3.82560686		0.02452335		0.06113167		-0.00070317		-0.00014370		 0.00007452
O		10.89959424		5.08447743		0.06113167		 0.00070317		 0.00014370		 0.00007452
O		11.18820520		2.52997631		4.42763045		-0.00070317		 0.00014370		 0.00007452
O		3.53699295		2.57902300		4.42763045		 0.00070317		-0.00014370		 0.00007452
H		4.41755989		3.06539929		0.87330005		-0.00030186		-0.00010566		 0.00042385
H		10.30763974		2.04360002		0.87330005		 0.00030186		 0.00010566		 0.00042385
H		11.78015970		4.59809967		5.23980031		-0.00030186		 0.00010566		 0.00042385
H		2.94503993		0.51089964		5.23980031		 0.00030186		-0.00010566		 0.00042385
H		3.97580390		0.91961964		3.92984950		 0.00000309		-0.00036953		-0.00029184
H		10.74939573		4.18937967		3.92984950		-0.00000309		 0.00036953		-0.00029184
H		11.33840371		1.63488001		8.29634976		 0.00000309		 0.00036953		-0.00029184
H		3.38679591		3.47411929		8.29634976		-0.00000309		-0.00036953		-0.00029184
