# total energy = -49446.322886 eV

CRYSTAL
PRIMVEC
		13.32279961		0.00000000		0.00000000
		0.00000000		5.10900055		0.00000000
		0.00000000		0.00000000		8.73300189
PRIMECORD
   70 1
Mg		2.30617661		1.67524080		0.04628474		-0.00037681		 0.00054806		-0.00051481
Mg		11.01662433		3.43375842		0.04628474		 0.00037681		-0.00054806		-0.00051481
Mg		8.96757642		0.87925948		4.41278435		-0.00037681		-0.00054806		-0.00051481
Mg		4.35522319		4.22974107		4.41278435		 0.00037681		 0.00054806		-0.00051481
Mg		2.36479693		4.27010249		1.53002228		-0.00055606		-0.00015053		-0.00011630
Mg		10.95800268		0.83889806		1.53002228		 0.00055606		 0.00015053		-0.00011630
Mg		9.02619674		3.39339833		5.89652056		-0.00055606		 0.00015053		-0.00011630
Mg		4.29660288		1.71560222		5.89652056		 0.00055606		-0.00015053		-0.00011630
Mg		4.31658707		1.76822461		2.83123880		-0.00015350		-0.00077955		 0.00081505
Mg		9.00621254		3.34077460		2.83123880		 0.00015350		 0.00077955		 0.00081505
Mg		10.97798688		0.78627433		7.19773841		-0.00015350		 0.00077955		 0.00081505
Mg		2.34481273		4.32272489		7.19773841		 0.00015350		-0.00077955		 0.00081505
Mg		0.00000000		2.55450027		7.23616403		0.00000000		0.00000000		 0.00035638
Mg		6.66139981		0.00000000		2.86966442		0.00000000		0.00000000		 0.00035638
Mg		0.00000000		2.55450027		1.63307147		0.00000000		0.00000000		-0.00080989
Mg		6.66139981		0.00000000		5.99957108		0.00000000		0.00000000		-0.00080989
Mg		0.00000000		0.00000000		5.78561225		0.00000000		0.00000000		-0.00047369
Mg		6.66139981		2.55450027		1.41911264		0.00000000		0.00000000		-0.00047369
Mg		0.00000000		0.00000000		3.01725040		0.00000000		0.00000000		 0.00019831
Mg		6.66139981		2.55450027		7.38375134		0.00000000		0.00000000		 0.00019831
Si		0.00000000		0.00000000		0.06724417		0.00000000		0.00000000		-0.00002622
Si		6.66139981		2.55450027		4.43374378		0.00000000		0.00000000		-0.00002622
Si		5.01736633		0.07203638		0.04453812		 0.00028298		-0.00007781		-0.00017056
Si		8.30543328		5.03696284		0.04453812		-0.00028298		 0.00007781		-0.00017056
Si		11.67876614		2.48246257		4.41103773		 0.00028298		 0.00007781		-0.00017056
Si		1.64403347		2.62653665		4.41103773		-0.00028298		-0.00007781		-0.00017056
O		5.53295868		3.62125950		8.67710875		-0.00010428		-0.00042977		 0.00046855
O		7.78984093		1.48774105		8.67710875		 0.00010428		 0.00042977		 0.00046855
O		12.19435849		4.04224132		4.31060913		-0.00010428		 0.00042977		 0.00046855
O		1.12844113		1.06675923		4.31060913		 0.00010428		-0.00042977		 0.00046855
O		1.04317521		3.54104826		0.04366548		-0.00051653		-0.00036433		-0.00052552
O		12.27962440		1.56795229		0.04366548		 0.00051653		 0.00036433		-0.00052552
O		7.70457502		4.12245124		4.41016509		-0.00051653		 0.00036433		-0.00052552
O		5.61822460		0.98654798		4.41016509		 0.00051653		-0.00036433		-0.00052552
O		3.32403850		0.11239780		3.01375849		-0.00010062		-0.00025713		-0.00018280
O		9.99876111		4.99660142		3.01375849		 0.00010062		 0.00025713		-0.00018280
O		9.98543831		2.44210248		7.38025811		-0.00010062		 0.00025713		-0.00018280
O		3.33736130		2.66689807		7.38025811		 0.00010062		-0.00025713		-0.00018280
O		3.39997846		2.61580780		1.41474543		 0.00009717		-0.00039201		 0.00045639
O		9.92282115		2.49319142		1.41474543		-0.00009717		 0.00039201		 0.00045639
O		10.06137827		5.04769169		5.78124637		 0.00009717		 0.00039201		 0.00045639
O		3.26142135		0.06130753		5.78124637		-0.00009717		-0.00039201		 0.00045639
O		1.01253277		0.73569565		1.33702155		-0.00026446		 0.00024634		 0.00026524
O		12.31026817		4.37330356		1.33702155		 0.00026446		-0.00024634		 0.00026524
O		7.67393258		1.81880329		5.70352249		-0.00026446		-0.00024634		 0.00026524
O		5.64886704		3.29019593		5.70352249		 0.00026446		 0.00024634		 0.00026524
O		5.72613927		3.30552248		3.16047316		 0.00045918		 0.00011989		-0.00005753
O		7.59666034		1.80347674		3.16047316		-0.00045918		-0.00011989		-0.00005753
O		12.38753908		4.35797702		7.52697144		 0.00045918		-0.00011989		-0.00005753
O		0.93526053		0.75102353		7.52697144		-0.00045918		 0.00011989		-0.00005753
O		5.52230044		0.78167663		1.39640659		 0.00027171		 0.00055350		-0.00023363
O		7.80049917		4.32732259		1.39640659		-0.00027171		-0.00055350		-0.00023363
O		12.18370025		1.77282231		5.76290620		 0.00027171		-0.00055350		-0.00023363
O		1.13909937		3.33617691		5.76290620		-0.00027171		 0.00055350		-0.00023363
O		1.18439689		3.49966498		3.03821116		 0.00006431		-0.00039126		-0.00042460
O		12.13840406		1.60933557		3.03821116		-0.00006431		 0.00039126		-0.00042460
O		7.84579669		4.16383452		7.40471077		 0.00006431		 0.00039126		-0.00042460
O		5.47700292		0.94516470		7.40471077		-0.00006431		-0.00039126		-0.00042460
O		3.46126334		0.02452328		0.06113033		-0.00001352		-0.00028757		-0.00034445
O		9.86153627		5.08447727		0.06113033		 0.00001352		 0.00028757		-0.00034445
O		10.12266315		2.52997700		4.42763128		-0.00001352		 0.00028757		-0.00034445
O		3.20013647		2.57902355		4.42763128		 0.00001352		-0.00028757		-0.00034445
H		3.99683988		3.06540033		0.87330019		-0.00031414		-0.00055868		 0.00052552
H		9.32595973		2.04360022		0.87330019		 0.00031414		 0.00055868		 0.00052552
H		10.65823969		4.59810049		5.23979980		-0.00031414		 0.00055868		 0.00052552
H		2.66455992		0.51090005		5.23979980		 0.00031414		-0.00055868		 0.00052552
H		3.59715590		0.91961957		3.92985018		 0.00030282		-0.00044458		 0.00041701
H		9.72564372		4.18937965		3.92985018		-0.00030282		 0.00044458		 0.00041701
H		10.25855570		1.63487938		8.29634979		 0.00030282		 0.00044458		 0.00041701
H		3.06424391		3.47411984		8.29634979		-0.00030282		-0.00044458		 0.00041701
