# total energy = -18390.4394532 eV	

CRYSTAL	
PRIMVEC	
		11.94303462		0.00000000		0.00000000	
		0.00000000		6.38940409		0.00000000	
		0.00000000		0.00000000		4.82810312	
PRIMCOORD
   28 1	
Mg		0.00000000		0.00000000		0.00000000		0.00000000		0.00000000		0.00000000	
Mg		5.97151731		0.00000000		2.41405037		0.00000000		-0.00000000		-0.00000000	
Mg		0.00000000		3.19469966		0.00000000		0.00000000		0.00000000		0.00000000	
Mg		5.97151731		3.19469966		2.41405037		0.00000000		-0.00000000		0.00000000	
Ca		3.30630971		1.59734983		4.71922683		-0.00040470		0.00000000		 0.00058108	
Ca		8.63672611		4.79204949		0.10887390		 0.00040470		0.00000000		-0.00058108	
Ca		2.66520761		4.79204949		2.30517647		 0.00040470		0.00000000		 0.00058108	
Ca		9.27782702		1.59734983		2.52292426		-0.00040470		0.00000000		-0.00058108	
Si		0.97407390		1.59734983		1.98425280		-0.00014972		0.00000000		-0.00054842	
Si		10.96896072		4.79204949		2.84384794		 0.00014972		0.00000000		 0.00054842	
Si		4.99744341		4.79204949		4.39830316		 0.00014972		0.00000000		-0.00054842	
Si		6.94559122		1.59734983		0.42979757		-0.00014972		0.00000000		 0.00054842	
O		0.92761550		1.59734983		3.60031378		-0.00039958		0.00000000		-0.00045165	
O		11.01541912		4.79204949		1.22778576		 0.00039958		0.00000000		 0.00045165	
O		5.04390181		4.79204949		1.18626341		 0.00039958		0.00000000		-0.00045165	
O		6.89913281		1.59734983		3.64183613		-0.00039958		0.00000000		 0.00045165	
O		5.36254198		1.59734983		1.18771330		-0.00034484		0.00000000		-0.00053026	
O		6.58049265		4.79204949		3.64038744		 0.00034484		0.00000000		 0.00053026	
O		0.60897534		4.79204949		3.60176247		 0.00034484		0.00000000		-0.00053026	
O		11.33405929		1.59734983		1.22633707		-0.00034484		0.00000000		 0.00053026	
O		1.76195590		0.29199645		1.31952021		 0.00000662		-0.00066952		 0.00039041	
O		10.18107873		6.09740406		3.50857933		-0.00000662		 0.00066952		-0.00039041	
O		4.20956141		6.09740406		3.73356938		-0.00000662		 0.00066952		 0.00039041	
O		7.73347321		0.29199645		1.09453016		 0.00000662		-0.00066952		-0.00039041	
O		10.18107873		3.48669611		3.50857933		-0.00000662		-0.00066952		-0.00039041	
O		1.76195590		2.90270440		1.31952021		 0.00000662		 0.00066952		 0.00039041	
O		7.73347321		2.90270440		1.09453016		 0.00000662		 0.00066952		-0.00039041	
O		4.20956141		3.48669611		3.73356938		-0.00000662		-0.00066952		 0.00039041	
