# total energy = -18390.6659634 eV	

CRYSTAL	
PRIMVEC	
		10.55430961		0.00000000		0.00000000	
		0.00000000		6.38939961		0.00000000	
		0.00000000		0.00000000		4.82810059	
PRIMCOORD
   28 1	
Mg		0.00000000		0.00000000		0.00000000		0.00000000		0.00000000		0.00000000	
Mg		5.27715480		0.00000000		2.41405030		0.00000000		0.00000000		0.00000000	
Mg		0.00000000		3.19469981		0.00000000		0.00000000		0.00000000		-0.00000000	
Mg		5.27715480		3.19469981		2.41405030		0.00000000		0.00000000		-0.00000000	
Ca		2.92185507		1.59735043		4.71922656		-0.00023533		0.00000000		-0.00054260	
Ca		7.63245453		4.79205024		0.10887404		 0.00023533		0.00000000		 0.00054260	
Ca		2.35529973		4.79205024		2.30517732		 0.00023533		-0.00000000		-0.00054260	
Ca		8.19900987		1.59735043		2.52292433		-0.00023533		0.00000000		 0.00054260	
Si		0.86080949		1.59735043		1.98425242		 0.00059054		-0.00000000		-0.00002348	
Si		9.69350011		4.79205024		2.84384817		-0.00059054		0.00000000		 0.00002348	
Si		4.41634531		4.79205024		4.39830272		-0.00059054		0.00000000		-0.00002348	
Si		6.13796429		1.59735043		0.42979787		 0.00059054		-0.00000000		 0.00002348	
O		0.81975323		1.59735043		3.60031353		 0.00026957		-0.00000000		-0.00015384	
O		9.73455638		4.79205024		1.22778600		-0.00026957		-0.00000000		 0.00015384	
O		4.45740158		4.79205024		1.18626429		-0.00026957		0.00000000		-0.00015384	
O		6.09690803		1.59735043		3.64183630		 0.00026957		0.00000000		 0.00015384	
O		4.73899056		1.59735043		1.18771340		 0.00050175		0.00000000		 0.00075736	
O		5.81531905		4.79205024		3.64038825		-0.00050175		-0.00000000		-0.00075736	
O		0.53816425		4.79205024		3.60176264		-0.00050175		-0.00000000		 0.00075736	
O		10.01614536		1.59735043		1.22633690		 0.00050175		0.00000000		-0.00075736	
O		1.55707730		0.29199553		1.31951984		-0.00008935		-0.00031678		-0.00001774	
O		8.99723231		6.09740408		3.50857970		 0.00008935		 0.00031678		 0.00001774	
O		3.72007751		6.09740408		3.73357014		 0.00008935		 0.00031678		-0.00001774	
O		6.83423315		0.29199553		1.09453046		-0.00008935		-0.00031678		 0.00001774	
O		8.99723231		3.48669639		3.50857970		 0.00008935		-0.00031678		 0.00001774	
O		1.55707730		2.90270428		1.31951984		-0.00008935		 0.00031678		-0.00001774	
O		6.83423315		2.90270428		1.09453046		-0.00008935		 0.00031678		 0.00001774	
O		3.72007751		3.48669639		3.73357014		 0.00008935		-0.00031678		-0.00001774	
