# total energy = -9137.32744895 eV

CRYSTAL
PRIMVEC
		5.74276603		0.00179189		-0.00056530
		-2.86983111		4.97587001		-0.00016532
		-0.00059196		-0.00049597		9.86191098
PRIMECORD
   14 1
Mg		2.14532817		0.00150711		4.00428653		 0.00025688		 0.00014900		 0.00030157
Mg		-1.07152549		1.86023828		4.00401295		 0.00000764		 0.00044286		 0.00025346
Mg		1.79848588		3.11536402		4.00257197		-0.00024609		-0.00056687		 0.00015108
Si		0.00070289		3.31826705		1.15979837		-0.00004168		 0.00007257		-0.00021210
Si		2.87230082		1.65944604		1.15970184		 0.00006813		-0.00004999		-0.00028950
O		0.00049330		3.31910274		2.79965897		-0.00005211		 0.00021874		-0.00036165
O		2.87310984		1.65915486		2.79949098		 0.00021238		-0.00007408		-0.00029265
O		2.86125778		0.00041064		10.56357641		-0.00000692		 0.00000683		 0.00008251
O		-1.43071582		2.47919049		10.56388466		 0.00000758		-0.00000214		 0.00009757
O		1.44062720		2.49654087		10.56385746		 0.00001042		 0.00000682		 0.00012615
O		4.01369874		0.00050290		4.69961530		 0.00039593		-0.00007765		 0.00047659
O		-2.00622168		3.47630837		4.69894014		-0.00019478		 0.00011428		 0.00037055
O		0.86639326		1.50180364		4.69710079		 0.00009119		 0.00021443		 0.00013895
O		-0.00349151		-0.00310327		4.92663096		-0.00050856		-0.00045480		-0.00084252
