# total energy = -66814.0231349 eV

CRYSTAL
PRIMVEC
		18.34339846		0.00000000		0.00000000
		0.00000000		6.73129350		0.26924440
		0.00000000		0.43538056		10.88440400
PRIMECORD
   112 1
Ca		14.17192622		6.82492187		2.78957232		 0.00057020		 0.00001857		 0.00019398
Ca		4.17147224		0.34175402		8.36407792		-0.00057020		-0.00001857		-0.00019398
Ca		4.17147224		0.10802611		2.52089840		-0.00006144		-0.00027966		 0.00029989
Ca		14.17192622		7.05864795		8.63275551		 0.00006144		 0.00027966		-0.00029989
Ca		13.34317147		3.47531092		3.05592764		-0.00006144		 0.00027966		-0.00029989
Ca		5.00022699		3.69136497		8.09772443		 0.00006144		-0.00027966		 0.00029989
Ca		5.00022699		3.48971599		3.05650546		 0.00057020		-0.00001857		-0.00019398
Ca		13.34317147		3.67695990		8.09714845		-0.00057020		 0.00001857		 0.00019398
Ca		7.55546239		1.39062955		8.19108500		-0.00029431		 0.00040261		-0.00031112
Ca		10.78793607		5.77604635		2.96256708		 0.00029431		-0.00040261		 0.00031112
Ca		10.78793607		5.99254981		8.37516100		-0.00019443		 0.00013939		 0.00051168
Ca		7.55546239		1.17412608		2.77848924		 0.00019443		-0.00013939		-0.00051168
Ca		1.61623684		4.75746311		8.35531711		-0.00019443		-0.00013939		-0.00051168
Ca		16.72716162		2.40921278		2.79833680		 0.00019443		 0.00013939		 0.00051168
Ca		16.72716162		2.62808438		8.27014137		-0.00029431		-0.00040261		 0.00031112
Ca		1.61623684		4.53859152		2.88351070		 0.00029431		 0.00040261		-0.00031112
Ca		6.10413271		5.40388814		0.21615677		 0.00036167		 0.00045513		 0.00034532
Ca		12.23926575		1.32741269		0.05309680		-0.00036167		-0.00045513		-0.00034532
Ca		3.06756652		2.25592617		5.52372924		-0.00036167		 0.00045513		 0.00034532
Ca		15.27583194		4.91074972		5.62992284		 0.00036167		-0.00045513		-0.00034532
Ca		12.35024332		1.37412416		5.48845855		 0.00016661		-0.00024560		-0.00037119
Ca		5.99315515		5.79254991		5.66519536		-0.00016661		 0.00024560		 0.00037119
Ca		15.16485438		4.52208613		0.18088242		-0.00016661		-0.00024560		-0.00037119
Ca		3.17854409		2.20921287		0.08836932		 0.00016661		 0.00024560		 0.00037119
Ca		9.17169923		3.36565042		0.13462587		-0.00000000		0.00000000		-0.00000000
Ca		0.00000000		0.21768845		5.44220017		0.00000000		-0.00000000		0.00000000
Ca		9.17169923		3.58333703		5.57682604		-0.00000000		0.00000000		-0.00000000
Ca		0.00000000		0.00000000		0.00000000		0.00000000		-0.00000000		0.00000000
Si		7.68918577		5.16980437		8.37637350		 0.00044103		 0.00018744		-0.00030817
Si		10.65421086		1.99687153		2.77727858		-0.00044103		-0.00018744		 0.00030817
Si		10.65421086		2.21610999		8.25822550		 0.00000905		-0.00002402		-0.00031116
Si		7.68918577		4.95056590		2.89542657		-0.00000905		 0.00002402		 0.00031116
Si		1.48251346		1.80260393		8.20299903		 0.00000905		 0.00002402		 0.00031116
Si		16.86088500		5.36407196		2.95065121		-0.00000905		-0.00002402		-0.00031116
Si		16.86088500		5.58021039		8.35410461		 0.00044103		-0.00018744		 0.00030817
Si		1.48251346		1.58646550		2.79954746		-0.00044103		 0.00018744		-0.00030817
Si		12.17689820		5.16855885		5.64023550		-0.00022459		 0.00020915		-0.00061748
Si		6.16650026		1.99811704		5.51341658		 0.00022459		-0.00020915		 0.00061748
Si		15.33819949		1.58522182		0.06340946		 0.00022459		 0.00020915		-0.00061748
Si		3.00519897		5.14607902		0.20584228		-0.00022459		-0.00020915		 0.00061748
Si		6.20337049		1.90361186		0.07614345		-0.00002459		-0.00041676		-0.00012491
Si		12.14002797		4.82768898		0.19310829		 0.00002459		 0.00041676		 0.00012491
Si		2.96832874		5.48694889		5.65297132		 0.00002459		-0.00041676		-0.00012491
Si		15.37506972		1.67972517		5.50068259		-0.00002459		 0.00041676		 0.00012491
Mg		9.17169923		0.21768845		5.44220017		0.00000000		0.00000000		0.00000000
Mg		0.00000000		3.36565042		0.13462587		0.00000000		0.00000000		0.00000000
Mg		9.17169923		0.00000000		0.00000000		0.00000000		0.00000000		0.00000000
Mg		0.00000000		3.58333703		5.57682604		0.00000000		0.00000000		0.00000000
O		5.29573914		1.78305904		1.39709376		 0.00037903		 0.00045843		 0.00023405
O		13.04765933		5.38361502		9.75655831		-0.00037903		-0.00045843		-0.00023405
O		13.04765933		5.05447208		1.52795006		-0.00008293		-0.00016524		 0.00074567
O		5.29573914		2.11220381		9.62570201		 0.00008293		 0.00016524		-0.00074567
O		3.87596009		5.26016578		4.31812771		-0.00008293		 0.00016524		-0.00074567
O		14.46743837		1.90651011		6.83552436		 0.00008293		-0.00016524		 0.00074567
O		14.46743837		1.80027799		4.17973228		 0.00037903		-0.00045843		-0.00023405
O		3.87596009		5.36639791		6.97392163		-0.00037903		 0.00045843		 0.00023405
O		12.78168005		5.86967656		4.36750081		-0.00025345		-0.00017922		-0.00031576
O		5.56171841		1.29699934		6.78615127		 0.00025345		 0.00017922		 0.00031576
O		5.56171841		1.19277031		4.18042566		 0.00041165		 0.00000680		 0.00013410
O		12.78168005		5.97390558		6.97322642		-0.00041165		-0.00000680		-0.00013410
O		14.73341764		2.39056855		1.39640038		 0.00041165		-0.00000680		-0.00013410
O		3.60998082		4.77610734		9.75724986		-0.00041165		 0.00000680		 0.00013410
O		3.60998082		4.44496131		1.47857697		-0.00025345		 0.00017922		 0.00031576
O		14.73341764		2.72171459		9.67507510		 0.00025345		-0.00017922		-0.00031576
O		8.72595465		5.63115735		9.57737449		 0.00023625		 0.00039613		 0.00017059
O		9.61744381		1.53551855		1.57627941		-0.00023625		-0.00039613		-0.00017059
O		9.61744381		1.84951167		9.42610749		 0.00031533		 0.00027961		-0.00027092
O		8.72595465		5.31716423		1.72754458		-0.00031533		-0.00027961		 0.00027092
O		0.44574458		2.16920225		7.03511888		 0.00031533		-0.00027961		 0.00027092
O		17.89765388		4.99747364		4.11853320		-0.00031533		 0.00027961		-0.00027092
O		17.89765388		5.11885741		7.15310545		 0.00023625		-0.00039613		-0.00017059
O		0.44574458		2.04781848		4.00054846		-0.00023625		 0.00039613		 0.00017059
O		6.21712804		5.79531792		8.77543597		 0.00011878		-0.00044422		-0.00020406
O		12.12627042		1.37135614		2.37821611		-0.00011878		 0.00044422		 0.00020406
O		12.12627042		1.62056588		8.60844500		-0.00000316		 0.00013271		 0.00041289
O		6.21712804		5.54611002		2.54520524		 0.00000316		-0.00013271		-0.00041289
O		2.95457119		2.39814804		7.85277953		-0.00000316		-0.00013271		-0.00041289
O		15.38882727		4.76852785		3.30087254		 0.00000316		 0.00013271		 0.00041289
O		15.38882727		4.95469500		7.95504214		 0.00011878		 0.00044422		 0.00020406
O		2.95457119		2.21198089		3.19860993		-0.00011878		-0.00044422		-0.00020406
O		6.89711782		3.33805278		0.13352160		-0.00016631		-0.00061267		 0.00032963
O		11.44628064		3.39324806		0.13573014		 0.00016631		 0.00061267		-0.00032963
O		2.27458141		6.92138981		5.71034763		 0.00016631		-0.00061267		 0.00032963
O		16.06881705		0.24528609		5.44330444		-0.00016631		 0.00061267		-0.00032963
O		7.54830847		3.60804926		7.95877136		-0.00004139		 0.00006710		-0.00008265
O		10.79508999		3.55862664		3.19488072		 0.00004139		-0.00006710		 0.00008265
O		10.79508999		3.74940715		7.96442479		-0.00017080		-0.00023880		 0.00000773
O		7.54830847		3.41726874		3.18922728		 0.00017080		 0.00023880		-0.00000773
O		1.62339076		7.00060577		8.76605332		-0.00017080		 0.00023880		-0.00000773
O		16.72000770		0.16607012		2.38759876		 0.00017080		-0.00023880		 0.00000773
O		16.72000770		0.41066467		8.50245501		-0.00004139		-0.00006710		 0.00008265
O		1.62339076		6.75601123		2.65119706		 0.00004139		 0.00006710		-0.00008265
O		7.29700391		0.70342164		0.02813694		 0.00050122		-0.00030761		 0.00042846
O		11.04639455		6.02787920		0.24111480		-0.00050122		 0.00030761		-0.00042846
O		1.87469532		4.28675867		5.60496298		-0.00050122		-0.00030761		 0.00042846
O		16.46870314		2.87991723		5.54868910		 0.00050122		 0.00030761		-0.00042846
O		10.57313487		5.41290392		5.65000886		-0.00046198		-0.00005097		-0.00003911
O		7.77026359		1.75377014		5.50364321		 0.00046198		 0.00005097		 0.00003911
O		16.94196282		1.82956689		0.07318282		 0.00046198		-0.00005097		-0.00003911
O		1.40143564		4.90173211		0.19606892		-0.00046198		 0.00005097		 0.00003911
O		12.74132457		3.66815140		5.58021957		-0.00086930		-0.00005691		-0.00019161
O		5.60207389		3.49852449		5.57343434		 0.00086930		 0.00005691		 0.00019161
O		14.77377312		0.08481437		0.00339353		 0.00086930		-0.00005691		-0.00019161
O		3.56962534		6.64648463		0.26585821		-0.00086930		 0.00005691		 0.00019161
O		8.14997194		5.93513498		7.07925860		-0.00013517		 0.00011850		 0.00014389
O		10.19342652		1.23153909		4.07439348		 0.00013517		-0.00011850		-0.00014389
O		10.19342652		1.34438951		6.89562834		-0.00006645		-0.00050001		-0.00024151
O		8.14997194		5.82228639		4.25802374		 0.00006645		 0.00050001		 0.00024151
O		1.02172729		2.67432442		9.56559620		-0.00006645		 0.00050001		 0.00024151
O		17.32167117		4.49235148		1.58805404		 0.00006645		-0.00050001		-0.00024151
O		17.32167117		4.81487795		9.65121951		-0.00013517		-0.00011850		-0.00014389
O		1.02172729		2.35179794		1.50243256		 0.00013517		 0.00011850		 0.00014389
