# total energy = -66803.5537404 eV

CRYSTAL
PRIMVEC
		18.34339846		0.00000000		0.00000000
		0.00000000		6.73129350		0.80775155
		0.00000000		1.30612334		10.88440400
PRIMECORD
   112 1
Ca		14.17192622		7.02656902		3.32750165		 0.00042802		 0.00030930		-0.00021460
Ca		4.17147224		1.01085883		8.36465390		-0.00042802		-0.00030930		 0.00021460
Ca		4.17147224		0.30967509		2.52147438		 0.00093868		 0.00009469		 0.00013314
Ca		14.17192622		7.72775093		9.17068117		-0.00093868		-0.00009469		-0.00013314
Ca		13.34317147		3.70903700		3.32460340		 0.00093868		-0.00009469		-0.00013314
Ca		5.00022699		4.32838901		8.36755216		-0.00093868		 0.00009469		 0.00013314
Ca		5.00022699		3.72344207		3.32633318		 0.00042802		-0.00030930		 0.00021460
Ca		13.34317147		4.31398394		8.36582421		-0.00042802		 0.00030930		-0.00021460
Ca		7.55546239		2.04250807		8.27625890		-0.00023835		 0.00000206		 0.00019636
Ca		10.78793607		5.99491795		3.41589666		 0.00023835		-0.00000206		-0.00019636
Ca		10.78793607		6.64443017		8.82849058		-0.00026615		 0.00026460		-0.00044009
Ca		7.55546239		1.39299768		2.86366681		 0.00026615		-0.00026460		 0.00044009
Ca		1.61623684		5.41171160		8.70974459		-0.00026615		-0.00026460		 0.00044009
Ca		16.72716162		2.62571625		2.98241280		 0.00026615		 0.00026460		-0.00044009
Ca		16.72716162		3.28233287		8.45421738		-0.00023835		-0.00000206		-0.00019636
Ca		1.61623684		4.75509498		3.23793818		 0.00023835		 0.00000206		 0.00019636
Ca		6.10413271		5.40388814		0.64846665		 0.00025838		 0.00052603		-0.00016370
Ca		12.23926575		1.32741269		0.15928857		-0.00025838		-0.00052603		 0.00016370
Ca		3.06756652		2.69130123		5.68678921		-0.00025838		 0.00052603		-0.00016370
Ca		15.27583194		5.34612662		6.00536818		 0.00025838		-0.00052603		 0.00016370
Ca		12.35024332		1.80950105		5.58097348		 0.00053328		-0.00089670		 0.00044940
Ca		5.99315515		6.22792496		6.11118391		-0.00053328		 0.00089670		-0.00044940
Ca		15.16485438		4.52208613		0.54264909		-0.00053328		-0.00089670		 0.00044940
Ca		3.17854409		2.20921287		0.26510613		 0.00053328		 0.00089670		-0.00044940
Ca		9.17169923		3.36565042		0.40387761		0.00000000		-0.00000000		0.00000000
Ca		0.00000000		0.65306351		5.44220017		0.00000000		0.00000000		-0.00000000
Ca		9.17169923		4.01871392		5.84607778		0.00000000		-0.00000000		0.00000000
Ca		0.00000000		0.00000000		0.00000000		0.00000000		0.00000000		-0.00000000
Si		7.68918577		5.82441789		8.76377323		-0.00001711		 0.00040584		-0.00066340
Si		10.65421086		2.21300996		2.92838232		 0.00001711		-0.00040584		 0.00066340
Si		10.65421086		2.87072352		8.40933108		 0.00012233		 0.00011081		-0.00009115
Si		7.68918577		5.16670433		3.28282631		-0.00012233		-0.00011081		 0.00009115
Si		1.48251346		2.45411742		8.32114703		 0.00012233		-0.00011081		 0.00009115
Si		16.86088500		5.58331043		3.37100852		-0.00012233		 0.00011081		-0.00009115
Si		16.86088500		6.23172388		8.77446010		-0.00001711		-0.00040584		 0.00066340
Si		1.48251346		1.80570397		2.91769546		 0.00001711		 0.00040584		-0.00066340
Si		12.17689820		5.60393574		6.03630432		 0.00024082		 0.00028837		-0.00031143
Si		6.16650026		2.43349210		5.65585123		-0.00024082		-0.00028837		 0.00031143
Si		15.33819949		1.58522182		0.19022655		-0.00024082		 0.00028837		-0.00031143
Si		3.00519897		5.14607902		0.61752867		 0.00024082		-0.00028837		 0.00031143
Si		6.20337049		1.90361186		0.22843218		-0.00012446		-0.00009781		 0.00042957
Si		12.14002797		4.82768898		0.57932304		 0.00012446		 0.00009781		-0.00042957
Si		2.96832874		5.92232395		6.07451179		 0.00012446		-0.00009781		 0.00042957
Si		15.37506972		2.11510207		5.61764560		-0.00012446		 0.00009781		-0.00042957
Mg		9.17169923		0.65306351		5.44220017		0.00000000		0.00000000		0.00000000
Mg		0.00000000		3.36565042		0.40387761		0.00000000		0.00000000		0.00000000
Mg		9.17169923		0.00000000		0.00000000		0.00000000		0.00000000		0.00000000
Mg		0.00000000		4.01871392		5.84607778		0.00000000		0.00000000		0.00000000
O		5.29573914		1.88929116		1.53548920		 0.00002825		 0.00001635		 0.00034350
O		13.04765933		6.14813668		10.15666635		-0.00002825		-0.00001635		-0.00034350
O		13.04765933		5.16070421		1.92805810		-0.00007450		-0.00042579		-0.00019741
O		5.29573914		2.87672548		9.76409745		 0.00007450		 0.00042579		 0.00019741
O		3.87596009		5.58931055		4.72577489		-0.00007450		 0.00042579		 0.00019741
O		14.46743837		2.44811730		6.96638249		 0.00007450		-0.00042579		-0.00019741
O		14.46743837		2.12942276		4.31058858		 0.00002825		-0.00001635		-0.00034350
O		3.87596009		5.90800509		7.38156697		-0.00002825		 0.00001635		 0.00034350
O		12.78168005		6.20082443		4.82382953		-0.00038665		-0.00060624		 0.00012618
O		5.56171841		1.83660342		6.86832602		 0.00038665		 0.00060624		-0.00012618
O		5.56171841		1.52391635		4.26260041		-0.00023928		-0.00021598		-0.00004840
O		12.78168005		6.51351150		7.42955514		 0.00023928		 0.00021598		 0.00004840
O		14.73341764		2.49479758		1.58347736		-0.00023928		 0.00021598		 0.00004840
O		3.60998082		5.54263027		10.10867819		 0.00023928		-0.00021598		-0.00004840
O		3.60998082		4.54919033		1.83000347		-0.00038665		 0.00060624		-0.00012618
O		14.73341764		3.48823752		9.86215209		 0.00038665		-0.00060624		 0.00012618
O		8.72595465		6.38052553		9.99789140		-0.00019177		 0.00011076		-0.00005102
O		9.61744381		1.65690232		1.69426415		 0.00019177		-0.00011076		 0.00005102
O		9.61744381		2.59888169		9.54409407		 0.00047617		-0.00020315		 0.00004275
O		8.72595465		5.43854616		2.14806149		-0.00047617		 0.00020315		-0.00004275
O		0.44574458		2.72595925		7.18638404		 0.00047617		 0.00020315		-0.00004275
O		17.89765388		5.31146677		4.50577151		-0.00047617		-0.00020315		 0.00004275
O		17.89765388		5.67561624		7.54034193		-0.00019177		-0.00011076		 0.00005102
O		0.44574458		2.36181161		4.15181362		 0.00019177		 0.00011076		-0.00005102
O		6.21712804		6.47990456		9.21167867		-0.00010137		-0.00008731		 0.00007333
O		12.12627042		1.55752329		2.48047872		 0.00010137		 0.00008731		-0.00007333
O		12.12627042		2.30515252		8.71070762		 0.00000913		-0.00011316		 0.00021173
O		6.21712804		5.73227533		2.98144794		-0.00000913		 0.00011316		-0.00021173
O		2.95457119		3.01969025		8.01977049		 0.00000913		 0.00011316		-0.00021173
O		15.38882727		5.01773759		3.67238506		-0.00000913		-0.00011316		 0.00021173
O		15.38882727		5.57623721		8.32655650		-0.00010137		 0.00008731		-0.00007333
O		2.95457119		2.46119064		3.36559906		 0.00010137		-0.00008731		 0.00007333
O		6.89711782		3.33805278		0.40056663		-0.00041486		 0.00004095		-0.00038660
O		11.44628064		3.39324806		0.40719043		 0.00041486		-0.00004095		 0.00038660
O		2.27458141		7.35676670		6.24664440		 0.00041486		 0.00004095		-0.00038660
O		16.06881705		0.68066115		5.44551115		-0.00041486		-0.00004095		 0.00038660
O		7.54830847		4.23420850		8.22236966		-0.00037098		 0.00012001		 0.00011592
O		10.79508999		3.80321935		3.46978773		 0.00037098		-0.00012001		-0.00011592
O		10.79508999		4.37556456		8.23933180		-0.00001055		-0.00023068		-0.00025252
O		7.54830847		3.66186329		3.45282559		 0.00001055		 0.00023068		 0.00025252
O		1.62339076		7.68057721		9.29890336		-0.00001055		 0.00023068		 0.00025252
O		16.72000770		0.35685064		2.39325403		 0.00001055		-0.00023068		-0.00025252
O		16.72000770		1.09063427		8.50811028		-0.00037098		-0.00012001		-0.00011592
O		1.62339076		6.94679358		3.18404710		 0.00037098		 0.00012001		 0.00011592
O		7.29700391		0.70342164		0.08441082		-0.00007632		 0.00010022		 0.00032028
O		11.04639455		6.02787920		0.72334440		 0.00007632		-0.00010022		-0.00032028
O		1.87469532		4.72213556		5.93048859		 0.00007632		 0.00010022		 0.00032028
O		16.46870314		3.31529229		5.76166696		-0.00007632		-0.00010022		-0.00032028
O		10.57313487		5.84828082		6.06562624		-0.00000221		 0.00002432		-0.00024240
O		7.77026359		2.18914703		5.62652931		 0.00000221		-0.00002432		 0.00024240
O		16.94196282		1.82956689		0.21954847		 0.00000221		 0.00002432		-0.00024240
O		1.40143564		4.90173211		0.58820859		-0.00000221		-0.00002432		 0.00024240
O		12.74132457		4.10352830		5.85625653		 0.00031963		-0.00015754		-0.00057688
O		5.60207389		3.93389955		5.83589902		-0.00031963		 0.00015754		 0.00057688
O		14.77377312		0.08481437		0.01017875		-0.00031963		-0.00015754		-0.00057688
O		3.56962534		6.64648463		0.79757830		 0.00031963		 0.00015754		 0.00057688
O		8.14997194		6.48336229		7.53214060		-0.00002775		-0.00036905		 0.00016995
O		10.19342652		1.55406556		4.16001496		 0.00002775		 0.00036905		-0.00016995
O		10.19342652		1.89261499		6.98125165		 0.00011335		 0.00012107		 0.00010639
O		8.14997194		6.14481286		4.71090573		-0.00011335		-0.00012107		-0.00010639
O		1.02172729		3.43222778		9.74922646		 0.00011335		-0.00012107		-0.00010639
O		17.32167117		4.60520007		1.94292910		-0.00011335		 0.00012107		 0.00010639
O		17.32167117		5.57277948		10.00609273		-0.00002775		 0.00036905		-0.00016995
O		1.02172729		2.46464837		1.68606282		 0.00002775		-0.00036905		 0.00016995
