# total energy = -41270.9627412 eV

CRYSTAL
PRIMVEC
		5.69780014		0.00000000		0.00000000
		0.00000000		10.60235255		0.00000000
		0.00000000		0.00000000		8.25709812
PRIMECORD
   56 1
Mg		0.00000000		0.00000000		0.00000000		0.00000000		0.00000000		0.00000000
Mg		0.00000000		5.30117513		0.00000000		0.00000000		0.00000000		0.00000000
Mg		2.84890007		5.30117513		4.12855020		0.00000000		0.00000000		0.00000000
Mg		2.84890007		0.00000000		4.12855020		0.00000000		0.00000000		0.00000000
Mg		0.00000000		2.65058700		8.00773618		0.00000000		-0.00000000		-0.00041135
Mg		0.00000000		7.95176213		0.24936422		0.00000000		0.00000000		 0.00041135
Mg		2.84890007		7.95176213		3.87918598		0.00000000		 0.00000001		-0.00041133
Mg		2.84890007		2.65058700		4.37791499		0.00000000		-0.00000001		 0.00041133
Mg		1.42445004		1.34543807		2.06427482		 0.00000002		-0.00049577		 0.00000009
Mg		4.27335011		9.25691220		6.19282502		-0.00000002		 0.00049577		-0.00000009
Mg		4.27335011		3.95573706		2.06427482		-0.00000001		 0.00049577		 0.00000008
Mg		1.42445004		6.64661320		6.19282502		 0.00000001		-0.00049577		-0.00000008
Mg		4.27335011		6.64661320		6.19282502		-0.00000001		-0.00049577		-0.00000008
Mg		1.42445004		3.95573706		2.06427482		 0.00000001		 0.00049577		 0.00000008
Mg		1.42445004		9.25691220		6.19282502		 0.00000002		 0.00049577		-0.00000009
Mg		4.27335011		1.34543807		2.06427482		-0.00000002		-0.00049577		 0.00000009
Si		0.00000000		1.27122194		5.09050239		0.00000000		 0.00003468		 0.00073406
Si		0.00000000		9.33112832		3.16659801		0.00000000		-0.00003468		-0.00073406
Si		0.00000000		4.02995319		5.09050239		0.00000000		-0.00003468		 0.00073410
Si		0.00000000		6.57239708		3.16659801		0.00000000		 0.00003468		-0.00073410
Si		2.84890007		6.57239708		0.96195219		0.00000000		 0.00003439		 0.00073510
Si		2.84890007		4.02995319		7.29514821		0.00000000		-0.00003439		-0.00073510
Si		2.84890007		9.33112832		0.96195219		0.00000000		-0.00003433		 0.00073523
Si		2.84890007		1.27122194		7.29514821		0.00000000		 0.00003433		-0.00073523
O		0.00000000		2.65058700		1.80169910		0.00000000		-0.00000001		 0.00049826
O		0.00000000		7.95176213		6.45540130		0.00000000		 0.00000001		-0.00049826
O		2.84890007		7.95176213		5.93024930		0.00000000		 0.00000003		 0.00049845
O		2.84890007		2.65058700		2.32685110		0.00000000		-0.00000003		-0.00049845
O		0.00000000		2.65058700		5.90960617		0.00000000		-0.00000002		 0.00002944
O		0.00000000		7.95176213		2.34749423		0.00000000		 0.00000002		-0.00002944
O		2.84890007		7.95176213		1.78105597		0.00000000		 0.00000002		 0.00002919
O		2.84890007		2.65058700		6.47604443		0.00000000		-0.00000002		-0.00002919
O		0.00000000		10.49420602		2.11794581		0.00000000		 0.00015530		 0.00019583
O		0.00000000		0.10814425		6.13915402		0.00000000		-0.00015530		-0.00019583
O		0.00000000		5.40931938		2.11794581		0.00000000		-0.00015526		 0.00019585
O		0.00000000		5.19303089		6.13915402		0.00000000		 0.00015526		-0.00019585
O		2.84890007		5.19303089		6.24649601		0.00000000		 0.00015493		 0.00019634
O		2.84890007		5.40931938		2.01060382		0.00000000		-0.00015493		-0.00019634
O		2.84890007		0.10814425		6.24649601		0.00000000		-0.00015490		 0.00019644
O		2.84890007		10.49420602		2.01060382		0.00000000		 0.00015490		-0.00019644
O		1.48199782		1.29984826		8.20012639		-0.00005492		-0.00001223		-0.00024343
O		4.21580232		9.30250200		0.05697401		 0.00005492		 0.00001223		 0.00024343
O		4.21580232		4.00132687		8.20012639		 0.00005484		 0.00001219		-0.00024349
O		1.48199782		6.60102340		0.05697401		-0.00005484		-0.00001219		 0.00024349
O		4.21580232		6.60102340		0.05697401		 0.00005484		-0.00001219		 0.00024349
O		1.48199782		4.00132687		8.20012639		-0.00005484		 0.00001219		-0.00024349
O		1.48199782		9.30250200		0.05697401		-0.00005492		 0.00001223		 0.00024343
O		4.21580232		1.29984826		8.20012639		 0.00005492		-0.00001223		-0.00024343
O		4.33089789		6.60102340		4.07157619		-0.00005452		-0.00001221		-0.00024371
O		1.36690225		4.00132687		4.18552421		 0.00005452		 0.00001221		 0.00024371
O		1.36690225		9.30250200		4.07157619		 0.00005450		 0.00001224		-0.00024368
O		4.33089789		1.29984826		4.18552421		-0.00005450		-0.00001224		 0.00024368
O		1.36690225		1.29984826		4.18552421		 0.00005450		-0.00001224		 0.00024368
O		4.33089789		9.30250200		4.07157619		-0.00005450		 0.00001224		-0.00024368
O		4.33089789		4.00132687		4.18552421		-0.00005452		 0.00001221		 0.00024371
O		1.36690225		6.60102340		4.07157619		 0.00005452		-0.00001221		-0.00024371
