# total energy = -8761.94861915 eV

CRYSTAL
PRIMVEC
		3.04799991		-0.12191987		0.00000000
		-1.62958626		2.70060697		0.00000000
		0.00000000		0.00000000		12.36200050
PRIMECORD
   11 1
H		-0.07039097		1.75976397		5.80643157		 0.00019856		-0.00008307		 0.00032342
H		1.48880492		0.81892190		6.55556862		-0.00019856		 0.00008307		-0.00032342
Mg		0.00000000		0.00000000		8.63732942		-0.00003816		-0.00028075		-0.00075355
Mg		0.00000000		0.00000000		3.72467077		 0.00003816		 0.00028075		 0.00075355
Mg		1.48880492		0.81892190		11.12703618		-0.00046969		-0.00059602		 0.00056325
Mg		-0.07039097		1.75976397		1.23496401		 0.00046969		 0.00059602		-0.00056325
O		1.48880492		0.81892190		2.46992772		 0.00049618		-0.00015768		 0.00005339
O		-0.07039097		1.75976397		9.89207217		-0.00049618		 0.00015768		-0.00005339
O		-0.07039097		1.75976397		4.81623464		-0.00011854		-0.00060087		 0.00015215
O		1.48880492		0.81892190		7.54576433		 0.00011854		 0.00060087		-0.00015215
O		0.00000000		0.00000000		0.00000000		0.00000000		0.00000000		0.00000000
