# total energy = -14249.4472084 eV

CRYSTAL
PRIMVEC
		7.72999987		0.00000000		0.00000000
		0.00000000		7.72999987		0.00000000
		0.00000000		0.00000000		5.51100292
PRIMECORD
   24 1
Ca		2.55089996		1.31409998		2.81061017		-0.00002915		 0.00002915		-0.00013497
Ca		5.17909991		6.41589989		2.81061017		 0.00002915		-0.00002915		-0.00013497
Ca		1.31409998		5.17909991		2.70038965		 0.00002915		 0.00002915		 0.00013497
Ca		6.41589989		2.55089996		2.70038965		-0.00002915		-0.00002915		 0.00013497
Si		1.08219998		2.78279995		5.23545007		-0.00077313		 0.00077313		-0.00066115
Si		6.64779989		4.94719992		5.23545007		 0.00077313		-0.00077313		-0.00066115
Si		2.78279995		6.64779989		0.27554976		 0.00077313		 0.00077313		 0.00066115
Si		4.94719992		1.08219998		0.27554976		-0.00077313		-0.00077313		 0.00066115
Mg		0.00000000		0.00000000		0.00000000		0.00000000		0.00000000		0.00000000
Mg		3.86499994		3.86499994		0.00000000		0.00000000		0.00000000		0.00000000
O		3.86499994		0.00000000		1.04709032		0.00000000		0.00000000		 0.00000444
O		0.00000000		3.86499994		4.46391028		0.00000000		0.00000000		-0.00000444
O		1.08219998		2.78279995		1.43285983		-0.00055379		 0.00055379		-0.00018959
O		6.64779989		4.94719992		1.43285983		 0.00055379		-0.00055379		-0.00018959
O		2.78279995		6.64779989		4.07813999		 0.00055379		 0.00055379		 0.00018959
O		4.94719992		1.08219998		4.07813999		-0.00055379		-0.00055379		 0.00018959
O		0.61839999		1.39139998		4.46391028		 0.00062045		 0.00072415		-0.00013991
O		7.11159988		6.33859989		4.46391028		-0.00062045		-0.00072415		-0.00013991
O		1.39139998		7.11159988		1.04709032		 0.00072415		-0.00062045		 0.00013991
O		6.33859989		0.61839999		1.04709032		-0.00072415		 0.00062045		 0.00013991
O		3.24659995		5.25639991		1.04709032		-0.00062045		 0.00072415		 0.00013991
O		4.48339993		2.47359996		1.04709032		 0.00062045		-0.00072415		 0.00013991
O		2.47359996		3.24659995		4.46391028		-0.00072415		-0.00062045		-0.00013991
O		5.25639991		4.48339993		4.46391028		 0.00072415		 0.00062045		-0.00013991
