# total energy = -14249.0424162 eV

CRYSTAL
PRIMVEC
		7.72999987		0.00000000		0.00000000
		0.00000000		7.72999987		0.00000000
		0.00000000		0.00000000		4.63425087
PRIMECORD
   24 1
Ca		2.55089996		1.31409998		2.36346833		-0.00046956		 0.00046956		 0.00039803
Ca		5.17909991		6.41589989		2.36346833		 0.00046956		-0.00046956		 0.00039803
Ca		1.31409998		5.17909991		2.27078331		 0.00046956		 0.00046956		-0.00039803
Ca		6.41589989		2.55089996		2.27078331		-0.00046956		-0.00046956		-0.00039803
Si		1.08219998		2.78279995		4.40253794		-0.00013291		 0.00013291		-0.00016837
Si		6.64779989		4.94719992		4.40253794		 0.00013291		-0.00013291		-0.00016837
Si		2.78279995		6.64779989		0.23171293		 0.00013291		 0.00013291		 0.00016837
Si		4.94719992		1.08219998		0.23171293		-0.00013291		-0.00013291		 0.00016837
Mg		0.00000000		0.00000000		0.00000000		0.00000000		0.00000000		0.00000000
Mg		3.86499994		3.86499994		0.00000000		0.00000000		0.00000000		0.00000000
O		3.86499994		0.00000000		0.88050805		0.00000000		0.00000000		-0.00057019
O		0.00000000		3.86499994		3.75374282		0.00000000		0.00000000		 0.00057019
O		1.08219998		2.78279995		1.20490523		-0.00041299		 0.00041299		-0.00025065
O		6.64779989		4.94719992		1.20490523		 0.00041299		-0.00041299		-0.00025065
O		2.78279995		6.64779989		3.42934487		 0.00041299		 0.00041299		 0.00025065
O		4.94719992		1.08219998		3.42934487		-0.00041299		-0.00041299		 0.00025065
O		0.61839999		1.39139998		3.75374282		-0.00011049		 0.00033782		-0.00032749
O		7.11159988		6.33859989		3.75374282		 0.00011049		-0.00033782		-0.00032749
O		1.39139998		7.11159988		0.88050805		 0.00033782		 0.00011049		 0.00032749
O		6.33859989		0.61839999		0.88050805		-0.00033782		-0.00011049		 0.00032749
O		3.24659995		5.25639991		0.88050805		 0.00011049		 0.00033782		 0.00032749
O		4.48339993		2.47359996		0.88050805		-0.00011049		-0.00033782		 0.00032749
O		2.47359996		3.24659995		3.75374282		-0.00033782		 0.00011049		-0.00032749
O		5.25639991		4.48339993		3.75374282		 0.00033782		-0.00011049		-0.00032749
