# total energy = -14250.1355294 eV

CRYSTAL
PRIMVEC
		7.72999987		0.00000000		0.00000000
		0.00000000		7.72999987		0.00000000
		0.00000000		0.00000000		4.88474925
PRIMECORD
   24 1
Ca		2.55089996		1.31409998		2.49122281		-0.00037288		 0.00037288		-0.00048324
Ca		5.17909991		6.41589989		2.49122281		 0.00037288		-0.00037288		-0.00048324
Ca		1.31409998		5.17909991		2.39352798		 0.00037288		 0.00037288		 0.00048324
Ca		6.41589989		2.55089996		2.39352798		-0.00037288		-0.00037288		 0.00048324
Si		1.08219998		2.78279995		4.64051295		 0.00013635		-0.00013635		-0.00038392
Si		6.64779989		4.94719992		4.64051295		-0.00013635		 0.00013635		-0.00038392
Si		2.78279995		6.64779989		0.24423785		-0.00013635		-0.00013635		 0.00038392
Si		4.94719992		1.08219998		0.24423785		 0.00013635		 0.00013635		 0.00038392
Mg		0.00000000		0.00000000		0.00000000		0.00000000		0.00000000		0.00000000
Mg		3.86499994		3.86499994		0.00000000		0.00000000		0.00000000		0.00000000
O		3.86499994		0.00000000		0.92810321		0.00000000		0.00000000		-0.00045851
O		0.00000000		3.86499994		3.95664759		0.00000000		0.00000000		 0.00045851
O		1.08219998		2.78279995		1.27003511		-0.00054242		 0.00054242		-0.00072866
O		6.64779989		4.94719992		1.27003511		 0.00054242		-0.00054242		-0.00072866
O		2.78279995		6.64779989		3.61471491		 0.00054242		 0.00054242		 0.00072866
O		4.94719992		1.08219998		3.61471491		-0.00054242		-0.00054242		 0.00072866
O		0.61839999		1.39139998		3.95664759		-0.00041616		 0.00000618		 0.00001082
O		7.11159988		6.33859989		3.95664759		 0.00041616		-0.00000618		 0.00001082
O		1.39139998		7.11159988		0.92810321		 0.00000618		 0.00041616		-0.00001082
O		6.33859989		0.61839999		0.92810321		-0.00000618		-0.00041616		-0.00001082
O		3.24659995		5.25639991		0.92810321		 0.00041616		 0.00000618		-0.00001082
O		4.48339993		2.47359996		0.92810321		-0.00041616		-0.00000618		-0.00001082
O		2.47359996		3.24659995		3.95664759		-0.00000618		 0.00041616		 0.00001082
O		5.25639991		4.48339993		3.95664759		 0.00000618		-0.00041616		 0.00001082
