# total energy = -14250.0995645 eV

CRYSTAL
PRIMVEC
		7.86000006		-0.31439969		0.00000000
		-0.31439969		7.86000006		0.00000000
		0.00000000		0.00000000		5.02399972
PRIMECORD
   24 1
O		0.99203926		2.78076093		1.27780409		 0.00013561		-0.00013561		-0.00025658
O		6.55356112		4.76483866		1.27780409		-0.00013561		 0.00013561		-0.00025658
O		2.55476413		6.64196401		3.74619562		 0.00040528		 0.00040528		-0.00005055
O		4.99083546		0.90363558		3.74619562		-0.00040528		-0.00040528		-0.00005055
O		0.59241073		1.43780827		3.96061955		-0.00030993		-0.00013390		 0.00033936
O		6.95318886		6.10779211		3.96061955		 0.00030993		 0.00013390		 0.00033936
O		1.17548496		7.15048080		1.06338017		-0.00017142		 0.00040905		-0.00014260
O		6.37011463		0.39511879		1.06338017		 0.00017142		-0.00040905		-0.00014260
O		3.06328093		5.26268484		1.06338017		 0.00040905		-0.00017142		-0.00014260
O		4.48231866		2.28291475		1.06338017		-0.00040905		 0.00017142		-0.00014260
O		2.33499192		3.18038867		3.96061955		 0.00013390		 0.00030993		 0.00033936
O		5.21060767		4.36521091		3.96061955		-0.00013390		-0.00030993		 0.00033936
O		-0.15719984		3.93000003		4.11616275		0.00000000		0.00000000		 0.00031099
O		3.93000003		-0.15719984		0.90783697		0.00000000		0.00000000		-0.00002305
Ca		2.55393817		1.21886202		2.54686717		-0.00055127		 0.00055127		-0.00064833
Ca		4.99166220		6.32673757		2.54686717		 0.00055127		-0.00055127		-0.00064833
Ca		1.11301092		5.20021080		2.47713255		-0.00021983		-0.00021983		 0.00074899
Ca		6.43258867		2.34538879		2.47713255		 0.00021983		 0.00021983		 0.00074899
Si		0.98648015		2.78632004		4.69934869		 0.00010285		-0.00010285		-0.00010265
Si		6.55911944		4.75927955		4.69934869		-0.00010285		 0.00010285		-0.00010265
Si		2.55989452		6.64709440		0.32465103		-0.00000480		-0.00000480		-0.00037083
Si		4.98570507		0.89850519		0.32465103		 0.00000480		 0.00000480		-0.00037083
Mg		0.00000000		0.00000000		0.00000000		0.00000000		0.00000000		 0.00014245
Mg		3.77280019		3.77280019		0.00000000		0.00000000		0.00000000		 0.00014245
