# total energy = -14245.1390253 eV

CRYSTAL
PRIMVEC
		7.86000253		-1.25760391		0.00000000
		-1.25760391		7.86000253		0.00000000
		0.00000000		0.00000000		5.02399989
PRIMECORD
   24 1
O		0.65304325		2.64815686		1.27780393		 0.00003942		-0.00003942		-0.00077472
O		5.94935696		3.95424415		1.27780393		-0.00003942		 0.00003942		-0.00077472
O		1.74416912		6.30296836		3.74619596		 0.00002665		 0.00002665		 0.00008718
O		4.85823189		0.29943106		3.74619596		-0.00002665		-0.00002665		 0.00008718
O		0.41674990		1.35969214		3.96062009		 0.00043260		-0.00037036		-0.00016863
O		6.18564952		5.24270808		3.96062009		-0.00043260		 0.00037036		-0.00016863
O		0.31040069		6.97481944		1.06337980		 0.00009299		-0.00037353		 0.00013040
O		6.29199873		-0.37241922		1.06337980		-0.00009299		 0.00037353		 0.00013040
O		2.41601861		4.86920073		1.06337980		-0.00037353		 0.00009299		 0.00013040
O		4.18638081		1.73319869		1.06337980		 0.00037353		-0.00009299		 0.00013040
O		1.94150797		2.88445021		3.96062009		 0.00037036		-0.00043260		-0.00016863
O		4.66089145		3.71795000		3.96062009		-0.00037036		 0.00043260		-0.00016863
O		-0.62880036		3.92999967		4.11616272		0.00000000		0.00000000		-0.00028817
O		3.92999967		-0.62880036		0.90783717		0.00000000		0.00000000		-0.00022865
Ca		2.39516109		0.90603902		2.54686701		-0.00024537		 0.00024537		 0.00046109
Ca		4.20723912		5.69636199		2.54686701		 0.00024537		-0.00024537		 0.00046109
Ca		0.48263458		5.04143462		2.47713288		 0.00018220		 0.00018220		 0.00033659
Ca		6.11976483		1.56096480		2.47713288		-0.00018220		-0.00018220		 0.00033659
Si		0.64684323		2.65435688		4.69934846		-0.00024186		 0.00024186		 0.00009878
Si		5.95555698		3.94804254		4.69934846		 0.00024186		-0.00024186		 0.00009878
Si		1.74865775		6.30745779		0.32465063		-0.00003868		-0.00003868		-0.00009223
Si		4.85374167		0.29494163		0.32465063		 0.00003868		 0.00003868		-0.00009223
Mg		0.00000000		0.00000000		0.00000000		0.00000000		0.00000000		 0.00021819
Mg		3.30120011		3.30120011		0.00000000		0.00000000		0.00000000		 0.00021819
