# total energy = -21541.9351837 eV

CRYSTAL
PRIMVEC
		5.18480183		0.00000000		-0.82957060
		0.00000000		8.92300215		0.00000000
		-1.61446261		-0.11066997		9.21129436
PRIMECORD
   42 1
Mg		0.00000000		0.00000000		0.00000000		0.00000000		0.00000000		0.00000000
Mg		2.59239987		4.46150003		-0.41478425		0.00000000		0.00000000		0.00000000
Mg		2.59239987		1.48648303		-0.41478425		-0.00002235		 0.00010928		 0.00010372
Mg		2.59239987		7.43651807		-0.41478425		 0.00002235		-0.00010928		-0.00010372
Mg		0.00000000		5.94798305		0.00000000		-0.00002232		 0.00012140		 0.00010359
Mg		0.00000000		2.97501700		0.00000000		 0.00002232		-0.00012140		-0.00010359
Si		3.85260410		1.45641883		1.98890118		-0.00017320		-0.00014196		-0.00001362
Si		-0.28226593		7.35591072		6.39282573		 0.00017320		 0.00014196		 0.00001362
Si		1.26020423		5.91791886		2.40368491		-0.00017158		-0.00012406		-0.00001774
Si		2.31013394		2.89441017		5.97804200		 0.00017158		 0.00012406		 0.00001774
Si		1.26020423		2.94067082		2.40368491		-0.00013163		-0.00003255		 0.00003671
Si		2.31013394		5.87165874		5.97804200		 0.00013163		 0.00003255		-0.00003671
Si		3.85260410		7.40217084		1.98890118		-0.00013260		-0.00001402		 0.00004048
Si		-0.28226593		1.41015924		6.39282573		 0.00013260		 0.00001402		-0.00004048
O		1.53984006		2.95861209		0.80649620		-0.00002844		 0.00030492		 0.00019318
O		2.03049706		5.85371799		7.57523070		 0.00002844		-0.00030492		-0.00019318
O		4.13223992		7.42011212		0.39171195		-0.00002936		 0.00030610		 0.00018620
O		-0.56190280		1.39221796		7.99001496		 0.00002936		-0.00030610		-0.00018620
O		4.13223992		1.47694820		0.39171195		-0.00007210		-0.00032640		 0.00034591
O		-0.56190280		7.33538188		7.99001496		 0.00007210		 0.00032640		-0.00034591
O		1.53984006		5.93844770		0.80649620		-0.00007104		-0.00032573		 0.00035371
O		2.03049706		2.87388185		7.57523070		 0.00007104		 0.00032573		-0.00035371
O		1.54459408		-0.01246212		0.76097118		 0.00044370		-0.00005776		-0.00007874
O		2.02574304		-0.09820890		7.62075677		-0.00044370		 0.00005776		 0.00007874
O		4.13699500		4.44903896		0.34618693		 0.00048207		-0.00005816		 0.00014345
O		-0.56665683		4.36329112		8.03554102		-0.00048207		 0.00005816		-0.00014345
O		1.26098082		4.42297583		2.91477571		 0.00044903		-0.00016792		-0.00049456
O		2.30935578		4.38935373		5.46695172		-0.00044903		 0.00016792		 0.00049456
O		3.85338068		-0.03852525		2.49999199		 0.00044655		-0.00016844		-0.00049904
O		-0.28304409		-0.07214577		5.88173597		-0.00044655		 0.00016844		 0.00049904
O		2.41724811		2.11174081		2.73693505		-0.00013203		 0.00008121		 0.00045041
O		1.15309006		6.70058875		5.64479186		 0.00013203		-0.00008121		-0.00045041
O		-0.17515176		6.57324083		3.15171878		-0.00012367		 0.00007233		 0.00044975
O		3.74548993		2.23908872		5.23000813		 0.00012367		-0.00007233		-0.00044975
O		-0.17520374		2.27253282		3.15172770		-0.00000083		-0.00006638		 0.00039359
O		3.74554086		6.53979673		5.22999973		 0.00000083		 0.00006638		-0.00039359
O		2.41719718		6.73403285		2.73694398		-0.00000968		-0.00007549		 0.00039416
O		1.15314100		2.07829618		5.64478398		 0.00000968		 0.00007549		-0.00039416
H		1.39890584		-0.00881390		1.59362975		-0.00000958		 0.00004002		-0.00005965
H		2.17143181		8.82114398		6.78809663		 0.00000958		-0.00004002		 0.00005965
H		3.99130570		4.45268612		1.17884602		-0.00004739		 0.00004025		-0.00025493
H		-0.42096911		4.35964291		7.20288088		 0.00004739		-0.00004025		 0.00025493
