# total energy = -24713.5166836 eV

CRYSTAL
PRIMVEC
		9.20099977		0.00000000		0.00000000
		0.00000000		8.18994791		0.00000000
		-0.97849872		0.00000000		4.80947299
PRIMECORD
   40 1
Si		2.54259968		0.74938003		1.01576001		-0.00084407		-0.00073579		-0.00042934
Si		5.67990229		7.44056973		3.79371022		 0.00084407		 0.00073579		 0.00042934
Si		6.16915073		0.74938003		1.38897464		 0.00084385		-0.00073569		 0.00042918
Si		2.05335124		7.44056973		3.42049467		-0.00084385		 0.00073569		-0.00042918
Si		7.14309956		4.84435490		1.01576001		 0.00068939		 0.00011231		 0.00033024
Si		1.07940241		3.34559485		3.79371022		-0.00068939		-0.00011231		-0.00033024
Si		1.56865085		4.84435490		1.38897464		-0.00068969		 0.00011253		-0.00033048
Si		6.65385112		3.34559485		3.42049467		 0.00068969		-0.00011253		 0.00033048
Mg		-0.24462422		7.41763807		1.20236825		-0.00000001		-0.00040562		-0.00000003
Mg		-0.73387266		0.77231168		3.60710290		 0.00000001		 0.00040562		 0.00000003
Mg		4.35587567		3.32266320		1.20236825		-0.00000000		-0.00050047		-0.00000001
Mg		3.86662722		4.86728655		3.60710290		0.00000000		 0.00050047		 0.00000001
Mg		-0.24462422		2.24568433		1.20236825		0.00000000		 0.00015304		-0.00000003
Mg		-0.73387266		5.94426542		3.60710290		-0.00000000		-0.00015304		 0.00000003
Mg		4.35587567		6.34065921		1.20236825		-0.00000000		 0.00026805		-0.00000002
Mg		3.86662722		1.84929054		3.60710290		0.00000000		-0.00026805		 0.00000002
O		0.98190953		0.74856114		0.66851612		 0.00092240		 0.00048715		 0.00037597
O		7.24059152		7.44138861		4.14095411		-0.00092240		-0.00048715		-0.00037597
O		7.72984088		0.74856114		1.73621854		-0.00092225		 0.00048711		-0.00037595
O		0.49266109		7.44138861		3.07325170		 0.00092225		-0.00048711		 0.00037595
O		5.58241126		4.84353693		0.66851612		-0.00007374		 0.00041334		 0.00013864
O		2.64009163		3.34641374		4.14095411		 0.00007374		-0.00041334		-0.00013864
O		3.12934099		4.84353693		1.73621854		 0.00007397		 0.00041331		-0.00013857
O		5.09316190		3.34641374		3.07325170		-0.00007397		-0.00041331		 0.00013857
O		3.13727133		1.94593232		1.76507563		 0.00042449		 0.00078474		 0.00066231
O		5.08523064		6.24401743		3.04439460		-0.00042449		-0.00078474		-0.00066231
O		5.57448000		1.94593232		0.63965994		-0.00042447		 0.00078460		-0.00066222
O		2.64802197		6.24401743		4.16981121		 0.00042447		-0.00078460		 0.00066222
O		7.73777122		6.04090720		1.76507563		-0.00012736		-0.00010997		 0.00015606
O		0.48473075		2.14904255		3.04439460		 0.00012736		 0.00010997		-0.00015606
O		0.97398011		6.04090720		0.63965994		 0.00012745		-0.00011021		-0.00015591
O		7.24852278		2.14904255		4.16981121		-0.00012745		 0.00011021		 0.00015591
O		2.38943063		0.50204427		4.40066613		-0.00052633		 0.00018544		 0.00034166
O		5.83307042		7.68790548		0.40880502		 0.00052633		-0.00018544		-0.00034166
O		5.34382197		0.50204427		2.81353968		 0.00052629		 0.00018545		-0.00034167
O		2.87867999		7.68790548		1.99592964		-0.00052629		-0.00018545		 0.00034167
O		6.98993144		4.59701915		4.40066613		-0.00073417		 0.00008970		 0.00028825
O		1.23257053		3.59293060		0.40880502		 0.00073417		-0.00008970		-0.00028825
O		0.74332209		4.59701915		2.81353968		 0.00073417		 0.00008969		-0.00028827
O		7.47918080		3.59293060		1.99592964		-0.00073417		-0.00008969		 0.00028827
