# total energy = -41266.8574478 eV

CRYSTAL
PRIMVEC
		5.69780089		-0.68373473		0.00000000
		-1.37544048		11.46199828		0.00000000
		0.00000000		0.00000000		8.25710185
PRIMECORD
   56 1
Mg		0.00000000		0.00000000		0.00000000		0.00000000		0.00000000		0.00000000
Mg		-0.68772024		5.73099971		0.00000000		0.00000000		0.00000000		0.00000000
Mg		2.16118020		5.38913178		4.12854978		0.00000000		0.00000000		0.00000000
Mg		2.84889987		-0.34186794		4.12854978		0.00000000		0.00000000		0.00000000
Mg		-0.34385983		2.86550014		8.00773622		-0.00000001		 0.00000001		-0.00016852
Mg		-1.03158007		8.59649986		0.24936390		 0.00000001		-0.00000001		 0.00016852
Mg		1.81731980		8.25463192		3.87918588		-0.00000001		 0.00000002		-0.00016851
Mg		2.50504004		2.52363221		4.37791482		 0.00000001		-0.00000002		 0.00016851
Mg		1.24990691		1.28359410		2.06427517		 0.00016805		 0.00037477		-0.00067808
Mg		3.07245292		9.49467003		6.19282495		-0.00016805		-0.00037477		 0.00067808
Mg		3.76017316		3.76366974		2.06427517		-0.00016805		-0.00037478		-0.00067809
Mg		0.56218724		7.01459381		6.19282495		 0.00016805		 0.00037478		 0.00067809
Mg		3.41108712		6.67272587		6.19282495		 0.00016805		 0.00037478		-0.00067811
Mg		0.91127272		4.10553825		2.06427517		-0.00016805		-0.00037478		 0.00067811
Mg		0.22355305		9.83653797		6.19282495		-0.00016804		-0.00037479		-0.00067813
Mg		4.09880678		0.94172616		2.06427517		 0.00016804		 0.00037479		 0.00067813
Si		-0.16491524		1.37429389		5.09050190		-0.00011334		 0.00002122		-0.00004738
Si		-1.21052524		10.08770611		3.16659822		 0.00011334		-0.00002122		 0.00004738
Si		-0.52280500		4.35670582		5.09050190		 0.00011325		-0.00002112		-0.00004718
Si		-0.85263491		7.10529418		3.16659822		-0.00011325		 0.00002112		 0.00004718
Si		1.99626496		6.76342624		0.96195213		-0.00011327		 0.00002109		-0.00004713
Si		2.32609488		4.01483788		7.29514800		 0.00011327		-0.00002109		 0.00004713
Si		1.63837521		9.74583817		0.96195213		 0.00011317		-0.00002096		-0.00004691
Si		2.68398520		1.03242596		7.29514800		-0.00011317		 0.00002096		 0.00004691
O		-0.34385983		2.86550014		1.80169912		0.00000000		-0.00000000		 0.00090717
O		-1.03158007		8.59649986		6.45540101		-0.00000000		0.00000000		-0.00090717
O		1.81731980		8.25463192		5.93024889		 0.00000001		-0.00000001		 0.00090721
O		2.50504004		2.52363221		2.32685123		-0.00000001		 0.00000001		-0.00090721
O		-0.34385983		2.86550014		5.90960572		0.00000000		0.00000000		 0.00049700
O		-1.03158007		8.59649986		2.34749383		-0.00000000		-0.00000000		-0.00049700
O		1.81731980		8.25463192		1.78105595		0.00000000		-0.00000001		 0.00049695
O		2.50504004		2.52363221		6.47604418		-0.00000000		 0.00000001		-0.00049695
O		-1.36140999		11.34508707		2.11794616		 0.00026495		 0.00009108		 0.00009640
O		-0.01402992		0.11691293		6.13915397		-0.00026495		-0.00009108		-0.00009640
O		-0.70175016		5.84791322		2.11794616		-0.00026496		-0.00009097		 0.00009654
O		-0.67368975		5.61408679		6.13915397		 0.00026496		 0.00009097		-0.00009654
O		2.17521012		5.27221885		6.24649593		 0.00026496		 0.00009096		 0.00009656
O		2.14715086		5.50604470		2.01060419		-0.00026496		-0.00009096		-0.00009656
O		2.83487110		-0.22495501		6.24649593		-0.00026497		-0.00009083		 0.00009672
O		1.48748988		11.00321914		2.01060419		 0.00026497		 0.00009083		-0.00009672
O		1.31336923		1.22740097		8.20012596		-0.00029040		 0.00046746		 0.00028289
O		3.00899118		9.55086201		0.05697416		 0.00029040		-0.00046746		-0.00028289
O		3.69671085		3.81986287		8.20012596		 0.00029030		-0.00046747		 0.00028282
O		0.62564898		6.95840183		0.05697416		-0.00029030		 0.00046747		-0.00028282
O		3.35945279		6.63034517		0.05697416		 0.00020626		-0.00020038		-0.00001922
O		0.96290704		4.14791896		8.20012596		-0.00020626		 0.00020038		 0.00001922
O		0.27518680		9.87891868		0.05697416		-0.00020628		 0.00020039		-0.00001923
O		4.04717303		0.89934488		8.20012596		 0.00020628		-0.00020039		 0.00001923
O		3.47454886		6.61653389		4.07157619		-0.00029031		 0.00046746		 0.00028282
O		0.84781098		4.16173081		4.18552394		 0.00029031		-0.00046746		-0.00028282
O		0.16009074		9.89272995		4.07157619		 0.00029021		-0.00046746		 0.00028275
O		4.16226910		0.88553303		4.18552394		-0.00029021		 0.00046746		-0.00028275
O		1.19827316		1.24121282		4.18552394		 0.00020623		-0.00020038		-0.00001919
O		3.12408725		9.53705074		4.07157619		-0.00020623		 0.00020038		 0.00001919
O		3.81180692		3.80605102		4.18552394		-0.00020624		 0.00020039		-0.00001920
O		0.51055292		6.97221310		4.07157619		 0.00020624		-0.00020039		 0.00001920
