# total energy = -24715.7895467 eV

CRYSTAL
PRIMVEC
		9.22470155		0.00000000		0.02440105
		0.00000000		8.62685739		0.00000000
		-0.96824881		0.00000000		4.81670498
PRIMECORD
   40 1
Si		2.55911455		0.79163286		1.02279970		 0.00053369		-0.00017600		-0.00059653
Si		5.69733911		7.83522821		3.81831093		-0.00053354		 0.00017609		 0.00059659
Si		6.18146259		0.79163286		1.40995752		-0.00053355		-0.00017618		 0.00059663
Si		2.07499107		7.83522821		3.43115219		 0.00053350		 0.00017624		-0.00059666
Si		7.17146348		5.10506247		1.03500022		 0.00053767		-0.00017404		-0.00059480
Si		1.08499017		3.52179860		3.80610949		-0.00053772		 0.00017397		 0.00059470
Si		1.56911366		5.10506247		1.39775608		-0.00053759		-0.00017415		 0.00059485
Si		6.68734000		3.52179768		3.44335363		 0.00053765		 0.00017408		-0.00059475
Mg		-0.24206174		7.82193644		1.20417716		-0.00000009		 0.00034414		-0.00000002
Mg		-0.72618523		0.80492370		3.61252965		-0.00000011		-0.00034414		 0.00000002
Mg		4.37028811		3.50850683		1.21637861		 0.00000009		 0.00034363		-0.00000002
Mg		3.88616463		5.11835424		3.62473110		 0.00000009		-0.00034364		-0.00000002
Mg		-0.24206174		2.36795550		1.20417716		-0.00000005		-0.00020620		-0.00000003
Mg		-0.72618523		6.25890557		3.61252965		-0.00000006		 0.00020620		-0.00000001
Mg		4.37028811		6.68138511		1.21637861		 0.00000004		-0.00020566		 0.00000004
Mg		3.88616463		1.94547595		3.62473110		 0.00000003		 0.00020557		 0.00000001
O		0.98619628		0.78453889		0.67086974		 0.00038646		-0.00013992		-0.00017405
O		7.27025646		7.84232126		4.17023997		-0.00038636		 0.00013991		 0.00017411
O		7.75437994		0.78453889		1.76188749		-0.00038636		-0.00013988		 0.00017408
O		0.50207279		7.84232126		3.07922315		 0.00038662		 0.00013991		-0.00017407
O		5.59854705		5.09796942		0.68307118		 0.00038364		-0.00014015		-0.00017472
O		2.65790569		3.52889165		4.15803853		-0.00038379		 0.00014021		 0.00017470
O		3.14203009		5.09796942		1.74968512		-0.00038389		-0.00014017		 0.00017471
O		5.11442357		3.52889165		3.09142459		 0.00038367		 0.00014020		-0.00017475
O		3.12241356		2.05547667		1.79215417		 0.00000985		-0.00048896		-0.00005702
O		5.13404010		6.57138348		3.04895554		-0.00000988		 0.00048882		 0.00005696
O		5.61816358		2.05547759		0.64060305		-0.00000990		-0.00048880		 0.00005692
O		2.63828915		6.57138348		4.20050666		 0.00001002		 0.00048869		-0.00005691
O		7.73476341		6.36890720		1.80435654		 0.00000847		-0.00049080		-0.00005810
O		0.52169025		2.25795295		3.03675409		-0.00000848		 0.00049105		 0.00005816
O		1.00581373		6.36890812		0.62840068		-0.00000855		-0.00049086		 0.00005807
O		7.25063993		2.25795295		4.21270903		 0.00000849		 0.00049080		-0.00005806
O		2.41728206		0.53834406		4.39976627		 0.00007155		-0.00017826		-0.00024966
O		5.83917068		8.08851701		0.44134344		-0.00007155		 0.00017826		 0.00024963
O		5.35504719		0.53834406		2.84969593		-0.00007157		-0.00017822		 0.00024960
O		2.90140554		8.08851701		1.99141379		 0.00007146		 0.00017825		-0.00024958
O		7.02963191		4.85177459		4.41196864		 0.00007092		-0.00017845		-0.00024981
O		1.22682083		3.77508648		0.42914107		-0.00007086		 0.00017845		 0.00024978
O		0.74269734		4.85177459		2.83749448		-0.00007086		-0.00017846		 0.00024982
O		7.51375540		3.77508648		2.00361523		 0.00007090		 0.00017846		-0.00024979
