# total energy = -49447.3240686 eV

CRYSTAL
PRIMVEC
		4.96216498		0.00000000		0.00000000
		0.00000000		13.96799822		0.00000000
		0.00000000		0.00000000		8.69559868
PRIMECORD
   70 1
Si		2.48108200		0.00000000		0.00000000		0.00000000		0.00000000		0.00000000
Si		0.00000000		6.98400010		4.34779983		0.00000000		0.00000000		0.00000000
Si		2.41166180		5.25923194		0.00000000		-0.00031043		-0.00000442		0.00000000
Si		2.55050318		8.70876777		0.00000000		 0.00031043		 0.00000442		-0.00000000
Si		0.06942118		12.24323204		4.34779983		 0.00031043		-0.00000442		0.00000000
Si		4.89274380		1.72476915		4.34779983		-0.00031043		 0.00000442		0.00000000
Mg		0.84063987		2.42358787		0.00000000		-0.00075751		 0.00013005		-0.00000000
Mg		4.12152511		11.54441183		0.00000000		 0.00075751		-0.00013005		-0.00000000
Mg		1.64044212		9.40758797		4.34779983		 0.00075751		 0.00013005		0.00000000
Mg		3.32172286		4.56041223		4.34779983		-0.00075751		-0.00013005		0.00000000
Mg		0.78555984		4.51808992		2.81563513		-0.00023369		-0.00027193		 0.00025908
Mg		4.17660514		9.44991077		5.87996504		 0.00023369		 0.00027193		-0.00025908
Mg		4.17660514		9.44991077		2.81563513		 0.00023369		 0.00027193		 0.00025908
Mg		0.78555984		4.51808992		5.87996504		-0.00023369		-0.00027193		-0.00025908
Mg		1.69552215		11.50208903		1.53216520		 0.00023369		-0.00027193		-0.00025908
Mg		3.26664283		2.46591117		7.16343496		-0.00023369		 0.00027193		 0.00025908
Mg		3.26664283		2.46591117		1.53216520		-0.00023369		 0.00027193		-0.00025908
Mg		1.69552215		11.50208903		7.16343496		 0.00023369		-0.00027193		 0.00025908
Mg		2.48108200		6.98400010		2.79363487		0.00000000		0.00000000		-0.00029672
Mg		2.48108200		6.98400010		5.90196380		0.00000000		0.00000000		 0.00029672
Mg		0.00000000		0.00000000		1.55416496		0.00000000		0.00000000		 0.00029672
Mg		0.00000000		0.00000000		7.14143521		0.00000000		0.00000000		-0.00029672
Mg		2.48108200		0.00000000		2.97293923		0.00000000		0.00000000		 0.00053865
Mg		2.48108200		0.00000000		5.72266093		0.00000000		0.00000000		-0.00053865
Mg		0.00000000		6.98400010		1.37486110		0.00000000		0.00000000		-0.00053865
Mg		0.00000000		6.98400010		7.32073807		0.00000000		0.00000000		 0.00053865
O		1.64848083		5.77129809		1.35755704		-0.00027028		 0.00039965		-0.00040664
O		3.31368416		8.19670211		7.33804313		 0.00027028		-0.00039965		 0.00040664
O		3.31368416		8.19670211		1.35755704		 0.00027028		-0.00039965		-0.00040664
O		1.64848083		5.77129809		7.33804313		-0.00027028		 0.00039965		 0.00040664
O		0.83260216		12.75529918		2.99024280		 0.00027028		 0.00039965		 0.00040664
O		4.12956283		1.21270201		5.70535687		-0.00027028		-0.00039965		-0.00040664
O		4.12956283		1.21270201		2.99024280		-0.00027028		-0.00039965		 0.00040664
O		0.83260216		12.75529918		5.70535687		 0.00027028		 0.00039965		-0.00040664
O		2.44679393		3.62092504		0.00000000		 0.00073976		-0.00013564		0.00000000
O		2.51537105		10.34707517		0.00000000		-0.00073976		 0.00013564		0.00000000
O		0.03428906		10.60492514		4.34779983		-0.00073976		-0.00013564		-0.00000000
O		4.92787593		3.36307606		4.34779983		 0.00073976		 0.00013564		-0.00000000
O		3.92710699		5.78973600		0.00000000		-0.00056909		 0.00030518		-0.00000000
O		1.03505799		8.17826420		0.00000000		 0.00056909		-0.00030518		-0.00000000
O		3.51613999		12.77373611		4.34779983		 0.00056909		 0.00030518		0.00000000
O		1.44602499		1.19426410		4.34779983		-0.00056909		-0.00030518		0.00000000
O		1.76851610		1.02064191		1.25773217		-0.00008765		-0.00028905		-0.00031554
O		3.19364889		12.94735878		7.43786799		 0.00008765		 0.00028905		 0.00031554
O		3.19364889		12.94735878		1.25773217		 0.00008765		 0.00028905		-0.00031554
O		1.76851610		1.02064191		7.43786799		-0.00008765		-0.00028905		 0.00031554
O		0.71256689		8.00464201		3.09006816		 0.00008765		-0.00028905		 0.00031554
O		4.24959809		5.96335918		5.60553101		-0.00008765		 0.00028905		-0.00031554
O		4.24959809		5.96335918		3.09006816		-0.00008765		 0.00028905		 0.00031554
O		0.71256689		8.00464201		5.60553101		 0.00008765		-0.00028905		-0.00031554
O		4.87557521		3.51784102		1.38433883		 0.00009184		-0.00016041		 0.00013464
O		0.08658978		10.45015918		7.31125984		-0.00009184		 0.00016041		-0.00013464
O		0.08658978		10.45015918		1.38433883		-0.00009184		 0.00016041		 0.00013464
O		4.87557521		3.51784102		7.31125984		 0.00009184		-0.00016041		-0.00013464
O		2.56767178		10.50184112		2.96346001		-0.00009184		-0.00016041		-0.00013464
O		2.39449321		3.46615908		5.73213916		 0.00009184		 0.00016041		 0.00013464
O		2.39449321		3.46615908		2.96346001		 0.00009184		 0.00016041		-0.00013464
O		2.56767178		10.50184112		5.73213916		-0.00009184		-0.00016041		 0.00013464
O		0.97099595		12.86159521		0.00000000		 0.00069315		 0.00064552		0.00000000
O		3.99116804		1.10640499		0.00000000		-0.00069315		-0.00064552		0.00000000
O		1.51008605		5.87759511		4.34779983		-0.00069315		 0.00064552		-0.00000000
O		3.45207894		8.09040510		4.34779983		 0.00069315		-0.00064552		-0.00000000
H		4.58057400		4.22671705		0.94347280		-0.00050367		 0.00058882		 0.00012119
H		0.38158999		9.74128315		7.75212687		 0.00050367		-0.00058882		-0.00012119
H		0.38158999		9.74128315		0.94347280		 0.00050367		-0.00058882		 0.00012119
H		4.58057400		4.22671705		7.75212687		-0.00050367		 0.00058882		-0.00012119
H		2.86267298		11.21071715		3.40432703		 0.00050367		 0.00058882		-0.00012119
H		2.09949201		2.75728305		5.29127214		-0.00050367		-0.00058882		 0.00012119
H		2.09949201		2.75728305		3.40432703		-0.00050367		-0.00058882		-0.00012119
H		2.86267298		11.21071715		5.29127214		 0.00050367		 0.00058882		 0.00012119
