# total energy = -11145.0178263 eV	

CRYSTAL	
PRIMVEC	
		7.44100123		0.00000000		-0.89291835	
		0.00000000		4.41000265		0.00000000	
		-0.99503682		0.00000000		8.29200349	
PRIMCOORD
   12 1	
Ca		-0.53182170		1.10250029		5.62665889		-0.00009133		0.00000000		 0.00012284	
Ca		6.97778236		3.30750012		1.77242100		 0.00009133		0.00000000		-0.00012284	
Ca		3.39525485		3.30750012		1.06911206		-0.00060282		-0.00000000		-0.00012684	
Ca		3.05070581		1.10250029		6.32996708		 0.00060282		0.00000000		 0.00012684	
Si		1.62977290		1.10250029		2.95577969		-0.00053787		-0.00000000		 0.00033997	
Si		4.81618701		3.30750012		4.44330020		 0.00053787		-0.00000000		-0.00033997	
Si		0.82583237		3.30750012		7.13855038		 0.00024375		0.00000000		 0.00036475	
Si		5.62012829		1.10250029		0.26053026		-0.00024375		0.00000000		-0.00036475	
Mg		1.00904233		1.10250029		0.40049012		-0.00003172		-0.00000000		 0.00000869	
Mg		5.43691833		3.30750012		6.99858977		 0.00003172		0.00000000		-0.00000869	
Mg		2.08693106		3.30750012		4.35744079		-0.00028927		0.00000000		 0.00002394	
Mg		4.35902885		1.10250029		3.04163910		 0.00028927		0.00000000		-0.00002394	
