# total energy = -11146.5256197 eV	

CRYSTAL	
PRIMVEC	
		7.44100028		0.00000000		-0.29763971	
		0.00000000		4.41000211		0.00000000	
		-0.33167972		0.00000000		8.29200054	
PRIMCOORD
   12 1	
Ca		-0.08029302		1.10250015		5.63829689		 0.00045374		-0.00000000		-0.00000211	
Ca		7.18961283		3.30749972		2.35606319		-0.00045374		-0.00000000		 0.00000211	
Ca		3.51510431		3.30749972		1.35511486		 0.00004327		-0.00000000		-0.00082797	
Ca		3.59421625		1.10250015		6.63924522		-0.00004327		-0.00000000		 0.00082797	
Si		1.88556412		1.10250015		3.11685704		-0.00017848		0.00000000		-0.00007355	
Si		5.22375570		3.30749972		4.87750304		 0.00017848		0.00000000		 0.00007355	
Si		1.41330384		3.30749972		7.27511276		 0.00020673		0.00000000		 0.00055138	
Si		5.69601597		1.10250015		0.71924583		-0.00020673		0.00000000		-0.00055138	
Mg		1.05137833		1.10250015		0.48629405		-0.00002592		0.00000000		-0.00029117	
Mg		6.05794223		3.30749972		7.50806603		 0.00002592		0.00000000		 0.00029117	
Mg		2.46094604		3.30749972		4.56927674		 0.00030100		-0.00000000		-0.00054863	
Mg		4.64837378		1.10250015		3.42508334		-0.00030100		-0.00000000		 0.00054863	
