# total energy = -66815.2116626 eV

CRYSTAL
PRIMVEC
		18.26826390		-0.00001834		0.00000000
		-0.00001834		6.69565228		0.00000000
		0.00000000		0.00000000		10.86187831
PRIMECORD
   112 1
Ca		14.13294099		6.68245420		2.49589635		 0.00040194		-0.00001008		 0.00001445
Ca		4.13532107		0.01317423		8.36598930		-0.00040191		 0.00001006		-0.00001448
Ca		4.13532107		0.01317423		2.49589635		-0.00040191		 0.00001008		 0.00001446
Ca		14.13294099		6.68245420		8.36598930		 0.00040189		-0.00001006		-0.00001448
Ca		13.26947137		3.33466108		2.93501896		-0.00040192		-0.00001191		-0.00001491
Ca		4.99878886		3.36096735		7.92686485		 0.00040192		 0.00001191		 0.00001490
Ca		4.99878886		3.36096735		2.93501896		 0.00040195		 0.00001191		-0.00001491
Ca		13.26947137		3.33466108		7.92686485		-0.00040191		-0.00001190		 0.00001489
Ca		7.48919687		1.03286541		8.15137154		-0.00012872		 0.00010138		-0.00026751
Ca		10.77906337		5.66276486		2.71051411		 0.00012881		-0.00010137		 0.00026753
Ca		10.77906337		5.66276486		8.15137154		 0.00012880		-0.00010138		-0.00026758
Ca		7.48919687		1.03286541		2.71051411		-0.00012887		 0.00010138		 0.00026759
Ca		1.64492041		4.38082362		8.14144776		 0.00012530		 0.00010278		 0.00027087
Ca		16.62334166		2.31480481		2.72043605		-0.00012538		-0.00010275		-0.00027087
Ca		16.62333982		2.31480481		8.14144776		-0.00012526		-0.00010275		 0.00027079
Ca		1.64492041		4.38082362		2.72043605		 0.00012529		 0.00010276		-0.00027083
Ca		6.00402544		5.36474333		0.00000000		-0.00038847		 0.00016494		-0.00000000
Ca		12.26423479		1.33088510		0.00000000		 0.00038849		-0.00016494		 0.00000001
Ca		3.13006432		2.01703643		5.43094282		 0.00038263		 0.00016760		 0.00000004
Ca		15.13819591		4.67859384		5.43094282		-0.00038265		-0.00016761		 0.00000006
Ca		12.29323937		1.13057886		5.43094282		-0.00076834		-0.00031722		-0.00000003
Ca		5.97502086		5.56505141		5.43094282		 0.00076835		 0.00031721		-0.00000003
Ca		15.10914181		4.47835547		0.00000000		 0.00077175		-0.00031351		 0.00000003
Ca		3.15911843		2.21727480		0.00000000		-0.00077175		 0.00031352		 0.00000004
Ca		9.13413012		3.34781513		0.00000000		-0.00000002		-0.00000001		-0.00000002
Ca		0.00000000		0.00000000		5.43094282		 0.00000003		 0.00000001		 0.00000001
Ca		9.13413012		3.34781513		5.43094099		 0.00000002		0.00000000		-0.00000002
Ca		0.00000000		0.00000000		0.00000000		 0.00000003		-0.00000003		-0.00000000
Si		7.66108368		4.80290155		8.16717071		-0.00014311		 0.00025866		 0.00018848
Si		10.60717655		1.89272688		2.69471310		 0.00014323		-0.00025851		-0.00018842
Si		10.60717655		1.89272688		8.16717071		 0.00014314		-0.00025861		 0.00018844
Si		7.66108368		4.80290155		2.69471310		-0.00014319		 0.00025850		-0.00018841
Si		1.47304093		1.45522766		8.12570362		 0.00014203		 0.00026072		-0.00018914
Si		16.79522113		5.24040261		2.73618019		-0.00014212		-0.00026068		 0.00018912
Si		16.79522113		5.24040261		8.12570362		-0.00014204		-0.00026072		-0.00018916
Si		1.47304093		1.45522766		2.73618019		 0.00014211		 0.00026064		 0.00018914
Si		12.11754997		4.92205293		5.43094282		-0.00031784		 0.00046206		-0.00000010
Si		6.15071210		1.77357734		5.43094282		 0.00031791		-0.00046210		-0.00000011
Si		15.28493210		1.57418643		0.00000000		 0.00031984		 0.00046031		 0.00000011
Si		2.98332814		5.12144383		0.00000000		-0.00031989		-0.00046034		 0.00000009
Si		6.17027533		1.90005507		0.00000000		-0.00027141		-0.00052786		 0.00000015
Si		12.09798490		4.79557519		0.00000000		 0.00027142		 0.00052787		 0.00000017
Si		2.96388413		5.24797843		5.43094282		 0.00027074		-0.00053171		-0.00000020
Si		15.30437610		1.44765000		5.43094282		-0.00027079		 0.00053176		-0.00000011
Mg		9.13413562		0.00000000		5.43094282		 0.00000002		0.00000000		-0.00000000
Mg		0.00000000		3.34782797		0.00000000		 0.00000002		 0.00000002		 0.00000001
Mg		9.13413562		0.00000000		0.00000000		 0.00000001		-0.00000000		-0.00000001
Mg		0.00000000		3.34782797		5.43094282		 0.00000001		0.00000000		0.00000000
O		5.25621645		1.73412069		1.34409234		 0.00029157		-0.00018537		 0.00030975
O		13.01204378		4.96150958		9.51779330		-0.00029152		 0.00018533		-0.00030985
O		13.01204378		4.96150958		1.34409234		-0.00029153		 0.00018530		 0.00030974
O		5.25621645		1.73412069		9.51779147		 0.00029148		-0.00018528		-0.00030985
O		3.87794668		5.08199085		4.08685415		-0.00029007		-0.00019084		-0.00030842
O		14.39031355		1.61363758		6.77502966		 0.00029004		 0.00019087		 0.00030855
O		14.39031355		1.61363758		4.08685415		 0.00029007		 0.00019087		-0.00030844
O		3.87794668		5.08199269		6.77502966		-0.00028999		-0.00019095		 0.00030856
O		12.73437609		5.69962775		4.12053996		 0.00034427		-0.00000197		 0.00023338
O		5.53388414		0.99600251		6.74134385		-0.00034425		 0.00000184		-0.00023325
O		5.53388414		0.99600251		4.12053996		-0.00034427		 0.00000195		 0.00023337
O		12.73437609		5.69962775		6.74134385		 0.00034423		-0.00000181		-0.00023321
O		14.66808029		2.35174658		1.31039552		-0.00034111		-0.00000851		-0.00023117
O		3.60017994		4.34388368		9.55148829		 0.00034106		 0.00000846		 0.00023105
O		3.60018177		4.34388185		1.31039552		 0.00034109		 0.00000854		-0.00023113
O		14.66808029		2.35174658		9.55148829		-0.00034105		-0.00000847		 0.00023104
O		8.73297100		5.21673962		9.34810219		-0.00036433		-0.00025244		 0.00013988
O		9.53528923		1.47888881		1.51378162		 0.00036437		 0.00025238		-0.00013994
O		9.53528923		1.47888881		9.34810219		 0.00036431		 0.00025240		 0.00013990
O		8.73297283		5.21673962		1.51378162		-0.00036436		-0.00025234		-0.00013992
O		0.40119947		1.86901254		6.94470977		 0.00036434		-0.00024794		-0.00013924
O		17.86706076		4.82661589		3.91717588		-0.00036442		 0.00024786		 0.00013927
O		17.86706076		4.82661589		6.94470977		-0.00036434		 0.00024795		-0.00013924
O		0.40119947		1.86901254		3.91717588		 0.00036441		-0.00024788		 0.00013921
O		6.17754299		5.41830789		8.57576991		 0.00015582		 0.00029030		 0.00031372
O		12.09071725		1.27732054		2.28611574		-0.00015587		-0.00029024		-0.00031380
O		12.09071725		1.27732237		8.57576991		-0.00015584		-0.00029034		 0.00031368
O		6.17754299		5.41830789		2.28611574		 0.00015584		 0.00029026		-0.00031374
O		2.95662198		2.07046157		7.71705673		-0.00015691		 0.00028790		-0.00031255
O		15.31163825		4.62516686		3.14482708		 0.00015700		-0.00028785		 0.00031263
O		15.31163825		4.62516686		7.71705673		 0.00015697		-0.00028787		-0.00031261
O		2.95662198		2.07046341		3.14482708		-0.00015701		 0.00028788		 0.00031266
O		6.88553763		3.34588908		0.00000000		-0.00015279		-0.00047333		-0.00000001
O		11.38272260		3.34973935		0.00000000		 0.00015279		 0.00047333		0.00000000
O		2.24864935		6.69382711		5.43094282		 0.00015463		-0.00047266		-0.00000004
O		16.01961089		0.00180132		5.43094282		-0.00015462		 0.00047266		 0.00000001
O		7.50101368		3.24261758		7.77656088		-0.00004938		 0.00012166		 0.00009005
O		10.76724655		3.45301269		3.08532293		 0.00004941		-0.00012183		-0.00009013
O		10.76724655		3.45301269		7.77656088		 0.00004938		-0.00012170		 0.00009008
O		7.50101552		3.24261758		3.08532293		-0.00004942		 0.00012183		-0.00009013
O		1.63291649		6.59063265		8.51649138		 0.00005321		 0.00012062		-0.00009324
O		16.63534374		0.10499761		2.34539426		-0.00005325		-0.00012071		 0.00009328
O		16.63534374		0.10499761		8.51649138		-0.00005321		-0.00012062		-0.00009323
O		1.63291649		6.59063265		2.34539426		 0.00005325		 0.00012068		 0.00009329
O		7.25022090		0.66188118		0.00000000		-0.00063502		-0.00064612		-0.00000004
O		11.01803933		6.03374909		0.00000000		 0.00063500		 0.00064613		 0.00000001
O		1.88385602		4.00987608		5.43094282		 0.00063277		-0.00064726		 0.00000007
O		16.38440422		2.68575235		5.43094282		-0.00063274		 0.00064727		 0.00000006
O		10.51197615		5.16032083		5.43094099		 0.00038831		-0.00045475		-0.00000006
O		7.75628592		1.53530943		5.43094282		-0.00038841		 0.00045478		-0.00000000
O		16.89050408		1.81242866		0.00000000		-0.00038976		-0.00044194		-0.00000003
O		1.37775798		4.88320161		0.00000000		 0.00038977		 0.00044195		 0.00000003
O		12.72309857		3.41379267		5.43094282		-0.00006928		 0.00010479		-0.00000004
O		5.54516166		3.28183576		5.43094282		 0.00006926		-0.00010470		 0.00000003
O		14.67936699		0.06595369		0.00000000		 0.00007279		 0.00010252		-0.00000001
O		3.58889325		6.62967657		0.00000000		-0.00007278		-0.00010256		-0.00000003
O		8.07228397		5.65281356		6.81976921		-0.00033833		-0.00009547		 0.00016532
O		10.19597626		1.04281487		4.04211460		 0.00033826		 0.00009542		-0.00016531
O		10.19597626		1.04281487		6.81976921		 0.00033836		 0.00009552		 0.00016533
O		8.07228397		5.65281356		4.04211460		-0.00033831		-0.00009553		-0.00016537
O		1.06195620		2.30534329		9.47300606		 0.00032843		-0.00009915		-0.00016565
O		17.20630586		4.39028514		1.38887959		-0.00032841		 0.00009916		 0.00016564
O		17.20630586		4.39028698		9.47300606		-0.00032844		 0.00009903		-0.00016552
O		1.06195437		2.30534329		1.38887959		 0.00032838		-0.00009900		 0.00016554
