# total energy = -18278.0452917 eV

CRYSTAL
PRIMVEC
		5.33599998		0.21343979		0.00000000
		-2.48315467		4.51438925		0.00000000
		0.00000000		0.00000000		14.61399805
PRIMECORD
   28 1
Mg		1.77155182		0.07086214		3.19754299		 0.00006071		-0.00021038		-0.00036614
Mg		-0.82440797		1.49877794		3.19754299		-0.00056757		 0.00037257		-0.00007016
Mg		1.90569986		3.15819110		3.19754299		-0.00035201		 0.00067314		-0.00085342
Mg		3.56444763		0.14257818		10.50454362		-0.00006071		 0.00021038		-0.00036614
Mg		-1.65874776		3.01561291		10.50454362		 0.00056757		-0.00037257		-0.00007016
Mg		0.94714386		1.56964007		10.50454362		 0.00035201		-0.00067314		-0.00085342
Si		0.12322986		3.08074067		0.42672898		-0.00016904		-0.00034304		 0.00023850
Si		2.72961492		1.64708996		7.73372854		 0.00016904		 0.00034304		 0.00023850
Si		0.12322986		3.08074067		7.73372854		 0.00010827		 0.00018469		 0.00009802
Si		2.72961492		1.64709103		0.42672898		-0.00010827		-0.00018469		 0.00009802
O		0.12322986		3.08074067		2.05472802		 0.00007043		-0.00002385		 0.00033707
O		2.72961492		1.64708996		9.36172758		-0.00007043		 0.00002385		 0.00033707
O		0.12322986		3.08074067		9.36172758		-0.00008326		 0.00020230		 0.00007689
O		2.72961492		1.64709103		2.05472802		 0.00008326		-0.00020230		 0.00007689
O		2.63598402		0.10543876		14.48247315		-0.00001429		-0.00024632		 0.00038816
O		-1.22667906		2.23010879		14.48247315		-0.00026634		 0.00006791		-0.00034031
O		1.44353875		2.39228308		14.48247315		 0.00011559		 0.00024869		-0.00013764
O		2.70001596		0.10800102		7.17547359		 0.00001429		 0.00024632		 0.00038816
O		-1.25647721		2.28428206		7.17547359		 0.00026634		-0.00006791		-0.00034031
O		1.40930497		2.33554916		7.17547359		-0.00011559		-0.00024869		-0.00013764
O		3.55733279		0.14229301		4.17814255		 0.00003803		 0.00077865		 0.00031505
O		-1.65543680		3.00959390		4.17814255		 0.00031125		 0.00044013		 0.00004586
O		0.95094773		1.57594372		4.17814255		-0.00001999		 0.00038532		 0.00027113
O		1.77866666		0.07114677		11.48514264		-0.00003803		-0.00077865		 0.00031505
O		-0.82771787		1.50479695		11.48514264		-0.00031125		-0.00044013		 0.00004586
O		1.90189599		3.15188798		11.48514264		 0.00001999		-0.00038532		 0.00027113
O		0.00000000		0.00000000		2.10441600		-0.00034674		-0.00028663		-0.00000301
O		0.00000000		0.00000000		9.41141556		 0.00034674		 0.00028663		-0.00000301
