# total energy = -18278.0446773 eV

CRYSTAL
PRIMVEC
		5.33599998		-0.21343979		0.00000000
		-2.85284532		4.72783437		0.00000000
		0.00000000		0.00000000		14.61399805
PRIMECORD
   28 1
Mg		1.77155182		-0.07086214		3.19754299		 0.00003659		 0.00014242		-0.00037658
Mg		-0.94714386		1.56964007		3.19754299		-0.00036643		-0.00065006		-0.00088414
Mg		1.65874776		3.01561291		3.19754299		-0.00062130		-0.00035331		-0.00006881
Mg		3.56444763		-0.14257818		10.50454362		-0.00003659		-0.00014242		-0.00037658
Mg		-1.90569986		3.15819110		10.50454362		 0.00036643		 0.00065006		-0.00088414
Mg		0.82440797		1.49877794		10.50454362		 0.00062130		 0.00035331		-0.00006881
Si		-0.12322986		3.08074067		0.42672898		-0.00009464		 0.00020167		 0.00011380
Si		2.60638506		1.43365018		7.73372854		 0.00009464		-0.00020167		 0.00011380
Si		-0.12322986		3.08074067		7.73372854		 0.00013313		-0.00034138		 0.00023390
Si		2.60638506		1.43365071		0.42672898		-0.00013313		 0.00034138		 0.00023390
O		-0.12322986		3.08074067		2.05472802		 0.00004351		 0.00020376		 0.00008080
O		2.60638506		1.43365018		9.36172758		-0.00004351		-0.00020376		 0.00008080
O		-0.12322986		3.08074067		9.36172758		-0.00005647		-0.00001897		 0.00029921
O		2.60638506		1.43365071		2.05472802		 0.00005647		 0.00001897		 0.00029921
O		2.63598402		-0.10543876		14.48247315		 0.00001804		 0.00026312		 0.00037976
O		-1.40930497		2.33554916		14.48247315		 0.00012458		-0.00021720		-0.00013581
O		1.25647721		2.28428206		14.48247315		-0.00024140		-0.00004914		-0.00027826
O		2.70001596		-0.10800102		7.17547359		-0.00001804		-0.00026312		 0.00037976
O		-1.44353875		2.39228308		7.17547359		-0.00012458		 0.00021720		-0.00013581
O		1.22667906		2.23010879		7.17547359		 0.00024140		 0.00004914		-0.00027826
O		3.55733279		-0.14229301		4.17814255		 0.00003246		-0.00072683		 0.00032722
O		-1.90189599		3.15188798		4.17814255		-0.00011916		-0.00033894		 0.00027028
O		0.82771787		1.50479695		4.17814255		 0.00028575		-0.00044310		 0.00004515
O		1.77866666		-0.07114677		11.48514264		-0.00003246		 0.00072683		 0.00032722
O		-0.95094773		1.57594372		11.48514264		 0.00011916		 0.00033894		 0.00027028
O		1.65543680		3.00959390		11.48514264		-0.00028575		 0.00044310		 0.00004515
O		0.00000000		0.00000000		2.10441600		-0.00039652		 0.00023040		-0.00000650
O		0.00000000		0.00000000		9.41141556		 0.00039652		-0.00023040		-0.00000650
