# total energy = -20634.6275431 eV

CRYSTAL
PRIMVEC
		10.05000003		0.00000000		0.00000000
		0.00000000		5.74999697		0.45999855
		0.00000000		0.38959830		4.86999886
PRIMECORD
   28 1
Si		3.34665001		0.35013396		4.37666949		 0.00007460		 0.00007144		-0.00029666
Si		6.70335002		0.03946635		0.49333139		-0.00007460		-0.00007144		 0.00029666
Si		8.37165002		3.22513445		4.60666876		 0.00007771		 0.00007416		-0.00030931
Si		1.67835000		2.91446584		0.72333066		-0.00007771		-0.00007416		 0.00030931
Mg		0.00000000		0.00000000		0.00000000		0.00000000		0.00000000		0.00000000
Mg		5.02500001		2.87500049		0.23000028		0.00000000		0.00000000		0.00000000
Mg		5.02500001		0.19480016		2.43500044		0.00000000		0.00000000		0.00000000
Mg		0.00000000		3.06979964		2.66499971		0.00000000		0.00000000		0.00000000
Mg		2.51250001		1.63229990		2.54999957		 0.00000105		 0.00000447		 0.00000481
Mg		7.53750002		4.50730039		2.77999985		-0.00000105		-0.00000447		-0.00000481
Mg		7.53750002		1.63229990		2.54999957		 0.00001453		-0.00001054		-0.00000482
Mg		2.51250001		4.50730039		2.77999985		-0.00001453		 0.00001054		 0.00000482
O		8.23497002		0.08649131		1.08113981		-0.00027768		 0.00064524		 0.00025924
O		1.81503001		0.30310901		3.78886006		 0.00027768		-0.00064524		-0.00025924
O		3.20997001		2.96149079		1.31114009		-0.00028505		 0.00065112		 0.00026437
O		6.84003002		3.17810950		4.01886034		 0.00028505		-0.00065112		-0.00026437
O		3.35770501		0.09167309		1.14591105		 0.00029835		-0.00045342		-0.00002216
O		6.69229502		0.29792723		3.72408882		-0.00029835		 0.00045342		 0.00002216
O		8.38270502		2.96667257		1.37591133		 0.00030625		-0.00045090		-0.00002365
O		1.66729500		3.17292671		3.95408910		-0.00030625		 0.00045090		 0.00002365
O		0.91254000		1.64200217		1.22154936		-0.00029569		-0.00006938		 0.00006911
O		9.13746003		4.49759812		4.10845107		 0.00029569		 0.00006938		-0.00006911
O		9.13746003		1.85604808		3.89712670		-0.00010242		-0.00023201		 0.00030099
O		0.91254000		4.28355222		1.43287272		 0.00010242		 0.00023201		-0.00030099
O		5.93754002		4.51700166		1.45154864		-0.00029682		-0.00006735		 0.00005744
O		4.11246001		1.62259763		3.87845079		 0.00029682		 0.00006735		-0.00005744
O		4.11246001		4.73104756		4.12712698		-0.00011500		-0.00023425		 0.00029822
O		5.93754002		1.40855172		1.20287345		 0.00011500		 0.00023425		-0.00029822
