# total energy = -24716.1490305 eV	

CRYSTAL	
PRIMVEC	
		10.08219523		0.00000000		-0.26019275	
		0.00000000		9.16268600		0.00000000	
		-1.84191206		0.00000000		5.07015372	
PRIMCOORD
   40 1	
Mg		2.09948231		5.88765752		1.12906217		-0.00005910		 0.00016413		 0.00023975	
Mg		6.14079990		3.27502368		3.68090073		 0.00005510		-0.00015541		-0.00024193	
Mg		7.06175689		1.30631932		1.14582483		 0.00005509		 0.00015519		-0.00024193	
Mg		1.17852532		7.85636956		3.66413711		-0.00005907		-0.00016386		 0.00023972	
Mg		2.04410315		-0.02202400		1.11362710		-0.00039754		 0.00073330		 0.00041048	
Mg		6.19617714		9.18471288		3.69633675		 0.00039640		-0.00074485		-0.00041397	
Mg		7.11713413		4.55931323		1.16126181		 0.00039641		 0.00074481		-0.00041401	
Mg		1.12314616		4.60336604		3.64870204		-0.00039754		-0.00073325		 0.00041051	
Si		-0.07094881		3.08634980		1.47172716		-0.00020594		 0.00047086		 0.00054889	
Si		8.31119546		6.07630159		3.33822516		 0.00031267		-0.00036823		-0.00051056	
Si		9.23215245		7.66772453		0.80315022		 0.00031284		 0.00036943		-0.00051076	
Si		-0.99190677		1.49499320		4.00680210		-0.00020551		-0.00047260		 0.00054930	
Si		5.00413075		7.68034194		1.19013238		 0.00010188		-0.00016928		-0.00033229	
Si		3.23616684		1.48235271		3.61983531		-0.00015890		 0.00013407		 0.00030563	
Si		4.15712383		3.09899125		1.08476038		-0.00015791		-0.00013637		 0.00030618	
Si		4.08317376		6.06368417		3.72520732		 0.00010146		 0.00017103		-0.00033254	
O		8.47821928		3.10778355		0.62799549		 0.00001739		-0.00006364		-0.00001444	
O		-0.23792458		6.05490245		4.18197029		-0.00006776		 0.00005691		-0.00000405	
O		0.68303242		7.68912367		1.64689535		-0.00006793		-0.00005720		-0.00000403	
O		7.55726229		1.47355945		3.16307139		 0.00001716		 0.00006384		-0.00001455	
O		0.66389432		4.51003273		1.67424895		 0.00030959		-0.00006968		 0.00015681	
O		7.57640424		4.65268115		3.13571587		-0.00036404		-0.00002390		-0.00016836	
O		8.49736123		-0.07133911		0.60064093		-0.00036381		 0.00002348		-0.00016830	
O		-0.25706267		9.23399339		4.20932485		 0.00030905		 0.00007060		 0.00015669	
O		-0.08349701		2.52502907		3.05742444		-0.00037049		-0.00049281		 0.00003386	
O		8.32377826		6.63765308		1.75253942		 0.00036121		 0.00049482		-0.00004123	
O		7.40282031		7.10637303		4.28761436		 0.00036150		-0.00049546		-0.00004186	
O		0.83745998		2.05631297		0.52234854		-0.00037086		 0.00049353		 0.00003450	
O		3.45724705		7.74132372		0.62096915		 0.00024613		 0.00009844		 0.00046624	
O		4.78302459		1.42136132		4.18898894		-0.00020966		-0.00009714		-0.00045232	
O		5.70398158		3.15998168		1.65391400		-0.00021018		 0.00009732		-0.00045250	
O		2.53628910		6.00270336		3.15604409		 0.00024632		-0.00009870		 0.00046632	
O		5.68210562		9.03912857		1.76258432		-0.00064290		 0.00011137		 0.00022742	
O		2.55816794		0.12354493		3.04737376		 0.00066789		-0.00007453		-0.00021187	
O		3.47912589		4.45779710		0.51229883		 0.00066716		 0.00007588		-0.00021242	
O		4.76114863		4.70489755		4.29765926		-0.00064246		-0.00011218		 0.00022775	
O		5.02458683		6.61891490		2.47333275		 0.00047380		 0.00036635		 0.00017032	
O		3.21569346		2.54376822		2.33662725		-0.00046566		-0.00036702		-0.00016843	
O		4.13665142		2.03757382		-0.19844865		-0.00046592		 0.00036796		-0.00016734	
O		4.10362983		7.12511218		5.00840865		 0.00047409		-0.00036717		 0.00016937	
