# total energy = -24716.6747085 eV	

CRYSTAL	
PRIMVEC	
		9.55576298		0.00000000		0.05063309	
		0.00000000		8.73126169		0.00000000	
		-1.59189976		0.00000000		4.87098601	
PRIMCOORD
   40 1	
Mg		2.06309032		5.72246597		1.05344707		 0.00048682		 0.00000292		 0.00015002	
Mg		5.90077482		3.00879187		3.86816914		-0.00048692		-0.00000170		-0.00015018	
Mg		6.69672374		1.35683801		1.43267710		-0.00048691		 0.00000165		-0.00015020	
Mg		1.26714236		7.37442079		3.48893815		 0.00048680		-0.00000294		 0.00015004	
Mg		2.10930996		0.13499242		1.04019999		 0.00053161		 0.00011741		-0.00019171	
Mg		5.85455518		8.59626639		3.88141622		-0.00053207		-0.00011887		 0.00019106	
Mg		6.65050410		4.50062134		1.44592418		-0.00053208		 0.00011888		 0.00019105	
Mg		1.31336200		4.23063651		3.47569203		 0.00053160		-0.00011743		-0.00019170	
Si		-0.06010793		2.98691687		1.43996780		-0.00069983		 0.00006680		-0.00013517	
Si		8.02396827		5.74433809		3.48164649		 0.00071844		-0.00005478		 0.00014157	
Si		8.81991718		7.35254868		1.04615445		 0.00071832		 0.00005503		 0.00014151	
Si		-0.85605589		1.37871205		3.87545888		-0.00069988		-0.00006694		-0.00013517	
Si		4.93464219		7.31542608		1.13008117		 0.00036136		-0.00073034		-0.00079530	
Si		3.02922680		1.41583465		3.79153696		-0.00037462		 0.00072209		 0.00078696	
Si		3.82517571		2.94979427		1.35604588		-0.00037466		-0.00072213		 0.00078691	
Si		4.13869424		5.78146165		3.56557225		 0.00036129		 0.00073048		-0.00079533	
O		7.97070979		2.96873914		0.96247093		-0.00083887		-0.00027212		-0.00029565	
O		-0.00684080		5.76251966		3.95914624		 0.00082813		 0.00027119		 0.00029179	
O		0.78910715		7.33436806		1.52365420		 0.00082820		-0.00027118		 0.00029185	
O		7.17476183		1.39688978		3.39796201		-0.00083886		 0.00027215		-0.00029567	
O		0.65644500		4.40276498		1.54732014		 0.00090086		 0.00016935		 0.00005714	
O		7.30742303		4.32849671		3.37429511		-0.00090838		-0.00018133		-0.00005810	
O		8.10337099		0.03713221		0.93880403		-0.00090830		 0.00018119		-0.00005806	
O		-0.13950392		8.69412274		3.98281219		 0.00090086		-0.00016929		 0.00005710	
O		0.04669646		2.47466227		3.02615824		 0.00030201		 0.00038236		 0.00065094	
O		7.91716965		6.25659654		1.89545797		-0.00030420		-0.00038238		-0.00065257	
O		7.12122169		6.84029119		4.33094905		-0.00030420		 0.00038232		-0.00065263	
O		0.84264441		1.89096761		0.59066716		 0.00030199		-0.00038228		 0.00065101	
O		3.40005867		7.32827806		0.60676073		 0.00016123		-0.00048093		 0.00048963	
O		4.56380455		1.40297979		4.31485452		-0.00015232		 0.00048151		-0.00048650	
O		5.35975251		2.96264914		1.87936247		-0.00015228		-0.00048148		-0.00048654	
O		2.60411071		5.76860967		3.04225181		 0.00016128		 0.00048092		 0.00048965	
O		5.43065710		8.59220286		1.94155168		-0.00026022		-0.00075140		 0.00039248	
O		2.53320708		0.13905306		2.98006261		 0.00026510		 0.00076005		-0.00038724	
O		3.32915600		4.22657586		0.54457153		 0.00026509		-0.00076004		-0.00038721	
O		4.63470914		4.50468487		4.37704276		-0.00026017		 0.00075131		 0.00039252	
O		5.10188809		6.02097722		2.20146468		-0.00048557		-0.00006053		-0.00006740	
O		2.86197705		2.71028158		2.72015057		 0.00048744		 0.00005966		 0.00006828	
O		3.65792501		1.65534734		0.28465852		 0.00048738		-0.00005968		 0.00006827	
O		4.30594013		7.07591051		4.63695673		-0.00048551		 0.00006052		-0.00006740	
