# total energy = -24716.8285047 eV	

CRYSTAL	
PRIMVEC	
		9.78736587		0.00000000		-0.03670346	
		0.00000000		8.98189885		0.00000000	
		-1.67585244		0.00000000		4.96799351	
PRIMCOORD
   40 1	
Mg		2.08280137		5.84221847		1.08824038		 0.00011646		 0.00012525		-0.00011805	
Mg		6.02871302		3.13968903		3.84305351		-0.00011213		-0.00016047		 0.00012272	
Mg		6.86663828		1.35126040		1.35905580		-0.00011214		 0.00016040		 0.00012270	
Mg		1.24487611		7.63062788		3.57223809		 0.00011652		-0.00012509		-0.00011805	
Mg		2.11530864		0.08805947		1.07296393		-0.00045390		-0.00036241		 0.00032500	
Mg		5.99620383		8.89382592		3.85832707		 0.00046363		 0.00040608		-0.00031080	
Mg		6.83412812		4.57902043		1.37432840		 0.00046362		-0.00040611		-0.00031087	
Mg		1.27738434		4.40288995		3.55696261		-0.00045387		 0.00036242		 0.00032510	
Si		-0.06977407		3.05271586		1.47361713		 0.00021114		-0.00066481		-0.00058374	
Si		8.18142497		5.92927817		3.45772387		-0.00068177		 0.00033263		 0.00042045	
Si		9.01935023		7.54356819		0.97372615		-0.00068177		-0.00033189		 0.00042027	
Si		-0.90769933		1.43823357		3.95761484		 0.00021211		 0.00066314		-0.00058318	
Si		5.00276470		7.51823050		1.14248229		-0.00027552		 0.00019041		 0.00035783	
Si		3.10865067		1.46360299		3.78875584		 0.00062192		 0.00003192		-0.00015347	
Si		3.94657593		3.02734644		1.30475717		 0.00062260		-0.00003308		-0.00015299	
Si		4.16483944		5.95461586		3.62648001		-0.00027545		-0.00018997		 0.00035789	
O		8.18530104		3.04684215		0.87638122		 0.00043500		 0.00000646		 0.00048130	
O		-0.07385875		5.93504901		4.05488767		-0.00018006		 0.00001825		-0.00038771	
O		0.76406555		7.53779735		1.57088996		-0.00018015		-0.00001841		-0.00038775	
O		7.34737578		1.44410728		3.36037990		 0.00043444		-0.00000635		 0.00048108	
O		0.66902588		4.47044913		1.61299896		 0.00031129		-0.00014333		-0.00010085	
O		7.44243083		4.51135647		3.31828820		-0.00010889		 0.00046343		 0.00013387	
O		8.28035609		-0.02040705		0.83428952		-0.00010875		-0.00046379		 0.00013388	
O		-0.16889842		9.00239723		4.09699668		 0.00031062		 0.00014452		-0.00010089	
O		-0.00899706		2.52359958		3.06594660		 0.00043531		-0.00020638		-0.00036013	
O		8.12049510		6.45829831		1.86533768		-0.00037881		 0.00020658		 0.00039843	
O		7.28257081		7.01454901		4.34933539		-0.00037870		-0.00020695		 0.00039811	
O		0.82892820		1.96734889		0.58194889		 0.00043511		 0.00020686		-0.00035978	
O		3.44949779		7.55476573		0.62325711		-0.00042289		 0.00017920		-0.00076006	
O		4.66208004		1.42713601		4.30805890		 0.00020360		-0.00019193		 0.00068383	
O		5.50000530		3.06381342		1.82406118		 0.00020325		 0.00019203		 0.00068373	
O		2.61157349		5.91808063		3.10725578		-0.00042302		-0.00017938		-0.00076016	
O		5.56667910		8.81755328		1.90359849		-0.00035423		 0.00045270		 0.00012508	
O		2.54487471		0.16440998		3.02773289		 0.00021917		-0.00068076		-0.00025269	
O		3.38279997		4.32653848		0.54373422		 0.00021877		 0.00068152		-0.00025314	
O		4.72875384		4.65529308		4.38759717		-0.00035420		-0.00045283		 0.00012515	
O		5.11845464		6.26611271		2.26949779		 0.00015813		-0.00045029		 0.00003162	
O		2.99307513		2.71578037		2.66180379		-0.00020731		 0.00046689		-0.00005272	
O		3.83100039		1.77516809		0.17780607		-0.00020732		-0.00046655		-0.00005249	
O		4.28052938		7.20673365		4.75349551		 0.00015820		 0.00045009		 0.00003148	
