# total energy = -12351.3734482 eV	

CRYSTAL	
PRIMVEC	
		4.44490009		0.00000000		0.00000000	
		0.00000000		4.66479819		0.00000000	
		0.00000000		0.00000000		6.93848016	
PRIMCOORD
   20 1	
O		0.47515982		2.21811227		1.73462004		 0.00064307		 0.00063579		0.00000000	
O		3.96974027		2.44668814		5.20386012		-0.00064307		-0.00063579		0.00000000	
O		2.69760987		0.11428816		5.20386012		 0.00064307		-0.00063579		-0.00000000	
O		1.74729023		4.55051314		1.73462004		-0.00064307		 0.00063579		0.00000000	
O		0.83697513		0.90450517		3.90012025		 0.00006527		-0.00016167		-0.00022472	
O		3.60792496		3.76029525		3.03835991		-0.00006527		 0.00016167		 0.00022472	
O		3.05942518		1.42789482		3.03835991		 0.00006527		 0.00016167		 0.00022472	
O		1.38547491		3.23690515		3.90012025		-0.00006527		-0.00016167		-0.00022472	
O		3.60792496		3.76029525		0.43088017		-0.00006527		 0.00016167		-0.00022472	
O		0.83697513		0.90450517		6.50760132		 0.00006527		-0.00016167		 0.00022472	
O		1.38547491		3.23690515		6.50760132		-0.00006527		-0.00016167		 0.00022472	
O		3.05942518		1.42789482		0.43088017		 0.00006527		 0.00016167		-0.00022472	
Mg		2.30334723		2.71351416		1.73462004		-0.00082777		-0.00040629		-0.00000000	
Mg		2.14155286		1.95128625		5.20386012		 0.00082777		 0.00040629		-0.00000000	
Mg		0.08089718		4.28368623		5.20386012		-0.00082777		 0.00040629		0.00000000	
Mg		4.36400291		0.38111418		1.73462004		 0.00082777		-0.00040629		0.00000000	
Si		2.22245005		0.00000000		3.46924008		-0.00000000		0.00000000		0.00000000	
Si		0.00000000		2.33239998		3.46924008		0.00000000		0.00000000		0.00000000	
Si		2.22245005		0.00000000		0.00000000		0.00000000		0.00000000		0.00000000	
Si		0.00000000		2.33239998		0.00000000		0.00000000		0.00000000		0.00000000	
