# total energy = -18533.9089979 eV	

CRYSTAL	
PRIMVEC	
		4.68600010		0.00000000		0.18743982	
		-2.34299771		4.05819302		-0.09371991	
		0.53163912		0.00000000		13.29100152	
PRIMCOORD
   30 1	
O		1.55392476		0.13229683		3.26812491		 0.00058436		-0.00004790		 0.00054245	
O		1.32071395		3.92589807		10.11659465		-0.00058436		 0.00004790		-0.00054245	
O		3.98713069		1.16835391		3.36545311		-0.00045945		-0.00062266		-0.00021270	
O		-1.11249105		2.88984099		10.01926692		 0.00045945		 0.00062266		 0.00021270	
O		1.87327591		2.75754275		3.28089884		 0.00006767		-0.00043986		-0.00043844	
O		1.00136420		1.30065121		10.10382071		-0.00006767		 0.00043986		 0.00043844	
O		4.07413910		1.48502909		7.79217866		 0.00058411		-0.00004818		 0.00054383	
O		0.96628818		1.22043402		1.25592790		-0.00058381		 0.00004892		-0.00054569	
O		1.82134399		2.52108617		7.70206704		-0.00045971		-0.00062256		-0.00021112	
O		3.21908188		0.18437694		1.34603999		 0.00046004		 0.00062235		 0.00020932	
O		2.05048973		0.05208011		7.71123268		 0.00006722		-0.00043971		-0.00043669	
O		2.98993708		2.65338300		1.33687388		-0.00006655		 0.00043953		 0.00043485	
O		1.90835193		2.83775994		12.12879165		 0.00058381		-0.00004892		 0.00054569	
O		-1.19949899		2.57316581		5.59254184		-0.00058411		 0.00004818		-0.00054383	
O		-0.34444177		3.87381795		12.03867957		-0.00046004		-0.00062235		-0.00020932	
O		1.05329612		1.53710920		5.68265392		 0.00045971		 0.00062256		 0.00021112	
O		-0.11529697		1.40481190		12.04784568		 0.00006655		-0.00043953		-0.00043485	
O		0.82414991		4.00611479		5.67348781		-0.00006722		 0.00043971		 0.00043669	
Mg		0.19064620		0.00000000		4.76615304		-0.00018993		 0.00001708		 0.00093250	
Mg		0.34099386		0.00000000		8.52484661		 0.00018993		-0.00001708		-0.00093250	
Mg		2.71085913		1.35273179		9.29020585		-0.00018987		 0.00001714		 0.00093369	
Mg		2.86120680		1.35273179		13.04890083		 0.00018983		-0.00001712		-0.00093291	
Mg		0.01343284		2.70546311		0.33581920		-0.00018983		 0.00001712		 0.00093291	
Mg		0.16378098		2.70546311		4.09451371		 0.00018987		-0.00001714		-0.00093369	
Si		0.08346718		0.00000000		2.08668708		-0.00068544		 0.00051993		 0.00015529	
Si		0.44817288		0.00000000		11.20431257		 0.00068544		-0.00051993		-0.00015529	
Si		2.60368106		1.35273179		6.61074082		-0.00068489		 0.00051988		 0.00015261	
Si		2.43674575		1.35273179		2.43736574		 0.00068420		-0.00052000		-0.00015006	
Si		0.43789389		2.70546311		10.94735382		-0.00068420		 0.00052000		 0.00015006	
Si		0.27095906		2.70546311		6.77397967		 0.00068489		-0.00051988		-0.00015261	
