# total energy = -18528.9747092 eV	

CRYSTAL	
PRIMVEC	
		4.68600089		0.00000000		0.56231897	
		-2.34299808		4.05819720		-0.28116185	
		1.59491964		0.00000000		13.29099854	
PRIMCOORD
   30 1	
O		1.81081388		0.13229705		3.38216421		-0.00019862		-0.00055341		 0.00003404	
O		2.12710620		3.92589827		10.18999618		 0.00019862		 0.00055341		-0.00003404	
O		4.24401898		1.16835389		3.67414814		-0.00001779		-0.00044165		 0.00029166	
O		-0.30609890		2.88984096		9.89801225		 0.00001779		 0.00044165		-0.00029166	
O		2.13016499		2.75754296		3.42048610		-0.00000602		-0.00056086		 0.00019833	
O		1.80775509		1.30065094		10.15167429		 0.00000602		 0.00056086		-0.00019833	
O		4.68545436		1.48502898		8.09365717		-0.00019815		-0.00055424		 0.00003489	
O		1.06382613		1.22043394		1.32933017		 0.00019800		 0.00055409		-0.00003378	
O		2.43265904		2.52108629		7.82332213		-0.00001715		-0.00044192		 0.00029195	
O		3.31662098		0.18437710		1.59966521		 0.00001688		 0.00044136		-0.00029229	
O		2.66180503		0.05208005		7.85081910		-0.00000556		-0.00056080		 0.00019872	
O		3.08747499		2.65338287		1.57216824		 0.00000378		 0.00056293		-0.00019957	
O		2.87409395		2.83775996		12.24283022		-0.00019800		-0.00055409		 0.00003378	
O		-0.74753380		2.57316587		5.47850322		 0.00019815		 0.00055424		-0.00003489	
O		0.62129911		3.87381822		11.97249518		-0.00001688		-0.00044136		 0.00029229	
O		1.50526104		1.53710903		5.74883920		 0.00001715		 0.00044192		-0.00029195	
O		0.85044509		1.40481198		11.99999215		-0.00000378		-0.00056293		 0.00019957	
O		1.27611505		4.00611527		5.72134129		 0.00000556		 0.00056080		-0.00019872	
Mg		0.57193803		0.00000000		4.76615323		 0.00009861		 0.00014695		-0.00014403	
Mg		1.02298208		0.00000000		8.52484720		-0.00009861		-0.00014695		 0.00014403	
Mg		3.44657804		1.35273193		9.47764619		 0.00009862		 0.00014686		-0.00014564	
Mg		3.89762209		1.35273193		13.23634158		-0.00009877		-0.00014733		 0.00014321	
Mg		0.04029799		2.70546291		0.33581881		 0.00009877		 0.00014733		-0.00014321	
Mg		0.49134204		2.70546291		4.09451420		-0.00009862		-0.00014686		 0.00014564	
Si		0.25040220		0.00000000		2.08668692		-0.00006166		 0.00017777		 0.00010759	
Si		1.34451790		0.00000000		11.20431351		 0.00006166		-0.00017777		-0.00010759	
Si		3.12504221		1.35273193		6.79818130		-0.00006174		 0.00017773		 0.00010531	
Si		2.62423828		1.35273193		2.62480605		 0.00006171		-0.00017800		-0.00010166	
Si		1.31368322		2.70546291		10.94735434		-0.00006171		 0.00017800		 0.00010166	
Si		0.81287787		2.70546291		6.77398004		 0.00006174		-0.00017773		-0.00010531	
