# total energy = -117597.736504 eV

CRYSTAL
PRIMVEC
		10.58799967		0.00000000		0.00000000
		0.00000000		13.39214668		0.00000000
		-2.45393833		0.00000000		9.76951553
PRIMECORD
   156 1
Si		8.18330189		0.01325829		0.72440976		-0.00002064		-0.00001112		 0.00011052
Si		-0.04923632		13.37889156		9.04511107		 0.00002064		 0.00001112		-0.00011052
Si		1.17773073		6.70933269		4.16035012		 0.00002064		-0.00001112		-0.00011052
Si		6.95633484		6.68281716		5.60917070		-0.00002064		 0.00001112		 0.00011052
Si		3.61492732		2.53968736		6.58055403		 0.00002029		-0.00011997		 0.00003270
Si		4.51914037		10.85246249		3.18896680		-0.00002029		 0.00011997		-0.00003270
Si		3.29217333		9.23576176		8.07372668		-0.00002029		-0.00011997		-0.00003270
Si		4.84189437		4.15638809		1.69579309		 0.00002029		 0.00011997		 0.00003270
Si		1.21183891		1.68071472		4.16914240		-0.00005848		 0.00024721		-0.00006137
Si		6.92222666		11.71143514		5.60037737		 0.00005848		-0.00024721		 0.00006137
Si		8.14919371		8.37678911		0.71561749		 0.00005848		 0.00024721		 0.00006137
Si		-0.01512708		5.01535968		9.05390228		-0.00005848		-0.00024721		-0.00006137
Si		6.86524205		1.65165383		5.59793578		-0.00019893		 0.00021846		 0.00007778
Si		1.26882459		11.74049602		4.17158505		 0.00019893		-0.00021846		-0.00007778
Si		0.04185754		8.34772823		9.05634599		 0.00019893		 0.00021846		-0.00007778
Si		8.09220909		5.04442057		0.71317484		-0.00019893		-0.00021846		 0.00007778
Mg		4.06703279		0.00000000		4.88475988		0.00000000		0.00000000		0.00000000
Mg		5.29399984		6.69607440		0.00000000		0.00000000		0.00000000		0.00000000
Mg		4.39572559		2.33706376		3.48175993		-0.00026871		 0.00015146		 0.00011284
Mg		3.73834104		11.05508610		6.28776090		 0.00026871		-0.00015146		-0.00011284
Mg		4.96530809		9.03313921		1.40300101		 0.00026871		 0.00015146		-0.00011284
Mg		3.16875854		4.35901064		8.36651981		-0.00026871		-0.00015146		 0.00011284
Mg		5.29399984		0.00000000		0.00000000		0.00000000		0.00000000		0.00000000
Mg		4.06703279		6.69607440		4.88475988		0.00000000		0.00000000		-0.00000000
Mg		6.19165257		0.03334585		2.86383686		 0.00023760		 0.00002232		-0.00004834
Mg		1.94241301		13.35880401		6.90568397		-0.00023760		-0.00002232		 0.00004834
Mg		3.16938006		6.72942130		2.02092303		-0.00023760		 0.00002232		 0.00004834
Mg		4.96468552		6.66272749		7.74859780		 0.00023760		-0.00002232		-0.00004834
Mg		0.42170944		0.00468731		1.48887498		 0.00004542		-0.00028435		-0.00001017
Mg		7.71235825		13.38746255		8.28064584		-0.00004542		 0.00028435		 0.00001017
Mg		8.93932424		6.70076171		3.39588490		-0.00004542		-0.00028435		 0.00001017
Mg		-0.80525761		6.69138815		6.37363593		 0.00004542		 0.00028435		-0.00001017
Mg		-0.86838750		0.00468731		6.20091071		-0.00014064		 0.00004962		 0.00032202
Mg		9.00245519		13.38746255		3.56861011		 0.00014064		-0.00004962		-0.00032202
Mg		7.77548814		6.70076171		8.45337106		 0.00014064		 0.00004962		-0.00032202
Mg		0.35857849		6.69138815		1.31614977		-0.00014064		-0.00004962		 0.00032202
Mg		3.19404057		0.03709612		2.10484245		 0.00012068		-0.00005384		-0.00006726
Mg		4.94002607		13.35505374		7.66467731		-0.00012068		 0.00005384		 0.00006726
Mg		6.16699311		6.73317052		2.77991743		-0.00012068		-0.00005384		 0.00006726
Mg		1.96707352		6.65897828		6.98960340		 0.00012068		 0.00005384		-0.00006726
Mg		6.57114024		2.27586194		1.20761007		 0.00011999		-0.00022319		-0.00016374
Mg		1.56292640		11.11628792		8.56190970		-0.00011999		 0.00022319		 0.00016374
Mg		2.78989239		8.97193634		3.67714982		-0.00011999		-0.00022319		 0.00016374
Mg		5.34417319		4.42021246		6.09237101		 0.00011999		 0.00022319		-0.00016374
Mg		-1.63791484		2.31724408		9.47360212		 0.00013136		 0.00002018		-0.00008297
Mg		9.77198042		11.07490578		0.29591871		-0.00013136		-0.00002018		 0.00008297
Mg		8.54501337		9.01331848		5.18067859		-0.00013136		 0.00002018		 0.00008297
Mg		-0.41094780		4.37883138		4.58884223		 0.00013136		-0.00002018		-0.00008297
Mg		0.46893509		2.37308943		7.34638722		 0.00001828		 0.00001434		 0.00009835
Mg		7.66513154		11.01906043		2.42313361		-0.00001828		-0.00001434		-0.00009835
Mg		6.43816449		9.06916382		7.30789455		-0.00001828		 0.00001434		-0.00009835
Mg		1.69590108		4.32298603		2.46162628		 0.00001828		-0.00001434		 0.00009835
Mg		6.00405545		2.35608086		8.74235357		-0.00015974		-0.00013662		-0.00010380
Mg		2.13001119		11.03606899		1.02716726		 0.00015974		 0.00013662		 0.00010380
Mg		0.90304414		9.05215526		5.91192820		 0.00015974		-0.00013662		 0.00010380
Mg		7.23102249		4.33999354		3.85759262		-0.00015974		 0.00013662		-0.00010380
Mg		3.60529224		2.25751506		0.44060478		-0.00014791		-0.00010444		 0.00009894
Mg		4.52877334		11.13463586		9.32891604		 0.00014791		 0.00010444		-0.00009894
Mg		5.75574038		8.95358946		4.44415510		 0.00014791		-0.00010444		-0.00009894
Mg		2.37832519		4.43856040		5.32536573		-0.00014791		 0.00010444		 0.00009894
Mg		9.40458318		2.37710651		1.94237595		-0.00028220		 0.00016022		 0.00001125
Mg		-1.27051655		11.01504229		7.82714488		 0.00028220		-0.00016022		-0.00001125
Mg		-0.04354950		9.07318197		2.94238393		 0.00028220		 0.00016022		-0.00001125
Mg		8.17761719		4.31896789		6.82713584		-0.00028220		-0.00016022		 0.00001125
O		3.63390525		1.00709029		6.54167066		-0.00007806		 0.00025081		 0.00005641
O		4.50016138		12.38505956		3.22785017		 0.00007806		-0.00025081		-0.00005641
O		3.27319539		7.70316469		8.11261005		 0.00007806		 0.00025081		-0.00005641
O		4.86087230		5.68898516		1.65691077		-0.00007806		-0.00025081		 0.00005641
O		5.72267194		1.16377787		4.50667936		 0.00006097		-0.00009909		-0.00002685
O		2.41139469		12.22837199		5.26284041		-0.00006097		 0.00009909		 0.00002685
O		3.63836068		7.85985227		0.37808053		-0.00006097		-0.00009909		 0.00002685
O		4.49570490		5.53229653		9.39144030		 0.00006097		 0.00009909		-0.00002685
O		6.88739955		3.21411542		5.59402775		 0.00008297		-0.00011211		-0.00031437
O		1.24666708		10.17803338		4.17549308		-0.00008297		 0.00011211		 0.00031437
O		0.01970003		9.91019087		9.06025402		-0.00008297		-0.00011211		 0.00031437
O		8.11436554		3.48195898		0.70926680		 0.00008297		 0.00011211		-0.00031437
O		6.50173167		1.14904572		7.12100365		-0.00018411		-0.00003483		 0.00008175
O		1.63233497		12.24310413		2.64851718		 0.00018411		 0.00003483		-0.00008175
O		0.40536792		7.84512118		7.53327706		 0.00018411		-0.00003483		-0.00008175
O		7.72869871		5.54702868		2.23624271		-0.00018411		 0.00003483		 0.00008175
O		1.23586097		3.24759573		4.15106868		 0.00002783		-0.00000818		-0.00002463
O		6.89820461		10.14455413		5.61845109		-0.00002783		 0.00000818		 0.00002463
O		8.12517166		9.94367119		0.73369120		-0.00002783		-0.00000818		 0.00002463
O		0.00889392		3.44847867		9.03582963		 0.00002783		 0.00000818		-0.00002463
O		2.73335141		1.17181310		3.75345012		 0.00001397		 0.00006326		-0.00014638
O		5.40071417		12.22033676		6.01607071		-0.00001397		-0.00006326		 0.00014638
O		6.62768122		7.86788750		1.13130977		-0.00001397		 0.00006326		 0.00014638
O		1.50638648		5.52426130		8.63821000		 0.00001397		-0.00006326		-0.00014638
O		0.80050677		1.16645557		5.68195261		-0.00019511		-0.00002773		-0.00010818
O		7.33355880		12.22569217		4.08756715		 0.00019511		 0.00002773		 0.00010818
O		6.10659175		7.86253209		8.97232810		 0.00019511		-0.00002773		 0.00010818
O		2.02747382		5.52961883		0.79719273		-0.00019511		 0.00002773		-0.00010818
O		0.07524997		1.17984833		3.09791530		-0.00005427		-0.00017141		-0.00001446
O		8.05881560		12.21230047		6.67160553		 0.00005427		 0.00017141		 0.00001446
O		9.28578265		7.87592379		1.78684459		 0.00005427		-0.00017141		 0.00001446
O		-1.15171602		5.51622607		7.98267518		-0.00005427		 0.00017141		-0.00001446
O		3.98348606		3.23152632		5.17100646		-0.00010492		 0.00008476		-0.00010285
O		4.15057952		10.16062354		4.59851437		 0.00010492		-0.00008476		 0.00010285
O		2.92361247		9.92760072		9.48327320		 0.00010492		 0.00008476		 0.00010285
O		5.21045311		3.46454914		0.28624657		-0.00010492		-0.00008476		-0.00010285
O		4.65489441		3.19536724		7.61534147		-0.00000844		 0.00060958		-0.00004756
O		3.47917116		10.19678261		2.15417936		 0.00000844		-0.00060958		 0.00004756
O		2.25220517		9.89144164		7.03894030		 0.00000844		 0.00060958		 0.00004756
O		5.88186146		3.50070821		2.73058053		-0.00000844		-0.00060958		-0.00004756
O		4.87379495		1.13967217		1.68133411		 0.00009217		-0.00009357		-0.00001689
O		3.26027062		12.25247769		8.08818566		-0.00009217		 0.00009357		 0.00001689
O		4.48723767		7.83574657		3.20342577		-0.00009217		-0.00009357		 0.00001689
O		3.64682896		5.55640329		6.56609506		 0.00009217		 0.00009357		-0.00001689
O		4.67919493		0.99637630		9.47448092		-0.00025209		 0.00019753		-0.00000231
O		3.45487170		12.39577356		0.29503990		 0.00025209		-0.00019753		 0.00000231
O		2.22790466		7.69245070		5.17979979		 0.00025209		 0.00019753		 0.00000231
O		5.90616198		5.69969916		4.58972104		-0.00025209		-0.00019753		-0.00000231
O		7.85626399		1.01378615		2.14147905		 0.00011729		-0.00000733		 0.00041267
O		0.27780158		12.37836477		7.62804178		-0.00011729		 0.00000733		-0.00041267
O		1.50476863		7.70986054		2.74328083		-0.00011729		-0.00000733		-0.00041267
O		6.62929800		5.68228931		7.02623999		 0.00011729		 0.00000733		 0.00041267
O		-1.10338921		0.95620013		8.03054564		 0.00022449		 0.00001646		-0.00033968
O		9.23745584		12.43595078		1.73897412		-0.00022449		-0.00001646		 0.00033968
O		8.01048880		7.65227347		6.62373507		-0.00022449		 0.00001646		 0.00033968
O		0.12357784		5.73987533		3.14578576		 0.00022449		-0.00001646		-0.00033968
O		9.65343718		1.06601463		0.27257005		-0.00034168		-0.00030822		-0.00000323
O		-1.51937054		12.32613417		9.49695078		 0.00034168		 0.00030822		 0.00000323
O		-0.29240349		7.76209009		4.61219089		 0.00034168		-0.00030822		 0.00000323
O		8.42647013		5.63005977		5.15732994		-0.00034168		 0.00030822		-0.00000323
O		1.35807613		0.98298354		8.63430303		 0.00017384		 0.00016243		-0.00000316
O		6.77599050		12.40916526		1.13521780		-0.00017384		-0.00016243		 0.00000316
O		5.54902345		7.67905899		6.01997768		-0.00017384		 0.00016243		 0.00000316
O		2.58504318		5.71309086		3.74954209		 0.00017384		-0.00016243		-0.00000316
O		2.03629998		0.97628769		0.69461301		 0.00022886		-0.00000995		 0.00007652
O		6.09776666		12.41586111		9.07490781		-0.00022886		 0.00000995		-0.00007652
O		7.32473264		7.67236314		4.19014793		-0.00022886		-0.00000995		-0.00007652
O		0.80933293		5.71978671		5.57937290		 0.00022886		 0.00000995		 0.00007652
O		2.21259335		3.20340142		6.99009150		-0.00006789		 0.00015594		 0.00002436
O		5.92147434		10.18874738		2.77942932		 0.00006789		-0.00015594		-0.00002436
O		4.69450729		9.89947688		7.66418921		 0.00006789		 0.00015594		-0.00002436
O		3.43956040		3.49267298		2.10533162		-0.00006789		-0.00015594		 0.00002436
O		8.35511654		1.14101049		5.16319145		 0.00001469		-0.00001069		-0.00005720
O		-0.22104990		12.25113831		4.60632937		-0.00001469		 0.00001069		 0.00005720
O		-1.44801695		7.83708595		9.49108820		-0.00001469		-0.00001069		 0.00005720
O		9.58208359		5.55506391		0.27843157		 0.00001469		 0.00001069		-0.00005720
O		-0.84821948		3.31723618		6.22220742		-0.00000788		-0.00017179		-0.00014236
O		8.98228717		10.07491474		3.54731341		 0.00000788		 0.00017179		 0.00014236
O		7.75532012		10.01330952		8.43207224		 0.00000788		-0.00017179		 0.00014236
O		0.37874651		3.37883928		1.33744647		-0.00000788		 0.00017179		-0.00014236
O		8.86703150		3.32259159		3.55512841		 0.00004237		 0.00067723		-0.00055217
O		-0.73296592		10.06955721		6.21439135		-0.00004237		-0.00067723		 0.00055217
O		0.49400112		10.01866705		1.32963147		-0.00004237		 0.00067723		 0.00055217
O		7.64006445		3.37348281		8.43988830		 0.00004237		-0.00067723		-0.00055217
H		-1.20765983		2.58468530		5.86171250		-0.00059180		 0.00020621		 0.00076016
H		9.34172647		10.80746455		3.90780833		 0.00059180		-0.00020621		-0.00076016
H		8.11475942		9.28075970		8.79256822		 0.00059180		 0.00020621		-0.00076016
H		0.01930722		4.11139015		0.97695155		-0.00059180		-0.00020621		 0.00076016
H		8.69894806		2.73199932		4.06412109		-0.00040223		-0.00085245		 0.00053017
H		-0.56488143		10.66015160		5.70539974		 0.00040223		 0.00085245		-0.00053017
H		0.66208562		9.42807372		0.82063986		 0.00040223		-0.00085245		-0.00053017
H		7.47198101		3.96407614		8.94888097		-0.00040223		 0.00085245		 0.00053017
