# total energy = -117583.945735 eV

CRYSTAL
PRIMVEC
		10.58799967		0.00000000		0.00000000
		0.00000000		12.68730354		0.00000000
		-2.45393833		0.00000000		9.76951553
PRIMECORD
   156 1
Si		8.18330189		0.01255949		0.72440976		-0.00000399		-0.00000973		-0.00000686
Si		-0.04923632		12.67473982		9.04511107		 0.00000399		 0.00000973		 0.00000686
Si		1.17773073		6.35621020		4.16035012		 0.00000399		-0.00000973		 0.00000686
Si		6.95633484		6.33109017		5.60917070		-0.00000399		 0.00000973		-0.00000686
Si		3.61492732		2.40602022		6.58055403		 0.00013849		-0.00044429		-0.00001843
Si		4.51914037		10.28128120		3.18896680		-0.00013849		 0.00044429		 0.00001843
Si		3.29217333		8.74966882		8.07372668		-0.00013849		-0.00044429		 0.00001843
Si		4.84189437		3.93763049		1.69579309		 0.00013849		 0.00044429		-0.00001843
Si		1.21183891		1.59225621		4.16914240		 0.00019480		 0.00007096		-0.00011917
Si		6.92222666		11.09504415		5.60037737		-0.00019480		-0.00007096		 0.00011917
Si		8.14919371		7.93590587		0.71561749		-0.00019480		 0.00007096		 0.00011917
Si		-0.01512708		4.75139344		9.05390228		 0.00019480		-0.00007096		-0.00011917
Si		6.86524205		1.56472530		5.59793578		-0.00053609		-0.00010124		 0.00015193
Si		1.26882459		11.12257507		4.17158505		 0.00053609		 0.00010124		-0.00015193
Si		0.04185754		7.90837495		9.05634599		 0.00053609		-0.00010124		-0.00015193
Si		8.09220909		4.77892436		0.71317484		-0.00053609		 0.00010124		 0.00015193
Mg		4.06703279		0.00000000		4.88475988		0.00000000		-0.00000000		0.00000000
Mg		5.29399984		6.34364965		0.00000000		0.00000000		-0.00000000		0.00000000
Mg		4.39572559		2.21406085		3.48175993		-0.00026545		 0.00032577		 0.00023523
Mg		3.73834104		10.47323846		6.28776090		 0.00026545		-0.00032577		-0.00023523
Mg		4.96530809		8.55771050		1.40300101		 0.00026545		 0.00032577		-0.00023523
Mg		3.16875854		4.12958881		8.36651981		-0.00026545		-0.00032577		 0.00023523
Mg		5.29399984		0.00000000		0.00000000		0.00000000		-0.00000000		0.00000000
Mg		4.06703279		6.34364965		4.88475988		0.00000000		-0.00000000		-0.00000000
Mg		6.19165257		0.03159141		2.86383686		 0.00025957		 0.00000191		-0.00012956
Mg		1.94241301		12.65570895		6.90568397		-0.00025957		-0.00000191		 0.00012956
Mg		3.16938006		6.37524107		2.02092303		-0.00025957		 0.00000191		 0.00012956
Mg		4.96468552		6.31205930		7.74859780		 0.00025957		-0.00000191		-0.00012956
Mg		0.42170944		0.00444061		1.48887498		-0.00006442		-0.00021646		-0.00011490
Mg		7.71235825		12.68285976		8.28064584		 0.00006442		 0.00021646		 0.00011490
Mg		8.93932424		6.34809132		3.39588490		 0.00006442		-0.00021646		 0.00011490
Mg		-0.80525761		6.33921011		6.37363593		-0.00006442		 0.00021646		-0.00011490
Mg		-0.86838750		0.00444061		6.20091071		-0.00000714		-0.00003704		 0.00064203
Mg		9.00245519		12.68285976		3.56861011		 0.00000714		 0.00003704		-0.00064203
Mg		7.77548814		6.34809132		8.45337106		 0.00000714		-0.00003704		-0.00064203
Mg		0.35857849		6.33921011		1.31614977		-0.00000714		 0.00003704		 0.00064203
Mg		3.19404057		0.03514369		2.10484245		 0.00008427		-0.00006212		-0.00005910
Mg		4.94002607		12.65215562		7.66467731		-0.00008427		 0.00006212		 0.00005910
Mg		6.16699311		6.37879334		2.77991743		-0.00008427		-0.00006212		 0.00005910
Mg		1.96707352		6.30850597		6.98960340		 0.00008427		 0.00006212		-0.00005910
Mg		6.57114024		2.15607990		1.20761007		 0.00016576		-0.00050767		-0.00026557
Mg		1.56292640		10.53121941		8.56190970		-0.00016576		 0.00050767		 0.00026557
Mg		2.78989239		8.49972956		3.67714982		-0.00016576		-0.00050767		 0.00026557
Mg		5.34417319		4.18756975		6.09237101		 0.00016576		 0.00050767		-0.00026557
Mg		-1.63791484		2.19528409		9.47360212		 0.00015654		-0.00001444		-0.00004276
Mg		9.77198042		10.49201522		0.29591871		-0.00015654		 0.00001444		 0.00004276
Mg		8.54501337		8.53893374		5.18067859		-0.00015654		-0.00001444		 0.00004276
Mg		-0.41094780		4.14836557		4.58884223		 0.00015654		 0.00001444		-0.00004276
Mg		0.46893509		2.24819020		7.34638722		-0.00000643		 0.00001494		-0.00005299
Mg		7.66513154		10.43911016		2.42313361		 0.00000643		-0.00001494		 0.00005299
Mg		6.43816449		8.59183986		7.30789455		 0.00000643		 0.00001494		 0.00005299
Mg		1.69590108		4.09545945		2.46162628		-0.00000643		-0.00001494		-0.00005299
Mg		6.00405545		2.23207739		8.74235357		-0.00003771		 0.00025165		-0.00026301
Mg		2.13001119		10.45522298		1.02716726		 0.00003771		-0.00025165		 0.00026301
Mg		0.90304414		8.57572704		5.91192820		 0.00003771		 0.00025165		 0.00026301
Mg		7.23102249		4.11157333		3.85759262		-0.00003771		-0.00025165		-0.00026301
Mg		3.60529224		2.13869758		0.44060478		-0.00017500		-0.00005589		-0.00002170
Mg		4.52877334		10.54860173		9.32891604		 0.00017500		 0.00005589		 0.00002170
Mg		5.75574038		8.48234724		4.44415510		 0.00017500		-0.00005589		 0.00002170
Mg		2.37832519		4.20495207		5.32536573		-0.00017500		 0.00005589		-0.00002170
Mg		9.40458318		2.25199553		1.94237595		-0.00047682		 0.00004906		-0.00019903
Mg		-1.27051655		10.43530378		7.82714488		 0.00047682		-0.00004906		 0.00019903
Mg		-0.04354950		8.59564624		2.94238393		 0.00047682		 0.00004906		 0.00019903
Mg		8.17761719		4.09165412		6.82713584		-0.00047682		-0.00004906		-0.00019903
O		3.63390525		0.95408465		6.54167066		 0.00000247		 0.00023113		-0.00006479
O		4.50016138		11.73321466		3.22785017		-0.00000247		-0.00023113		 0.00006479
O		3.27319539		7.29773430		8.11261005		-0.00000247		 0.00023113		 0.00006479
O		4.86087230		5.38956500		1.65691077		 0.00000247		-0.00023113		-0.00006479
O		5.72267194		1.10252629		4.50667936		 0.00030488		-0.00014499		-0.00005875
O		2.41139469		11.58477408		5.26284041		-0.00030488		 0.00014499		 0.00005875
O		3.63836068		7.44617594		0.37808053		-0.00030488		-0.00014499		 0.00005875
O		4.49570490		5.24112337		9.39144030		 0.00030488		 0.00014499		-0.00005875
O		6.88739955		3.04495200		5.59402775		 0.00001478		 0.00021449		-0.00070395
O		1.24666708		9.64234730		4.17549308		-0.00001478		-0.00021449		 0.00070395
O		0.01970003		9.38860166		9.06025402		-0.00001478		 0.00021449		 0.00070395
O		8.11436554		3.29869765		0.70926680		 0.00001478		-0.00021449		-0.00070395
O		6.50173167		1.08857025		7.12100365		-0.00021191		-0.00023368		 0.00015689
O		1.63233497		11.59873012		2.64851718		 0.00021191		 0.00023368		-0.00015689
O		0.40536792		7.43221990		7.53327706		 0.00021191		-0.00023368		-0.00015689
O		7.72869871		5.25507941		2.23624271		-0.00021191		 0.00023368		 0.00015689
O		1.23586097		3.07666942		4.15106868		 0.00020171		 0.00030562		-0.00009095
O		6.89820461		9.61062989		5.61845109		-0.00020171		-0.00030562		 0.00009095
O		8.12517166		9.42032013		0.73369120		-0.00020171		 0.00030562		 0.00009095
O		0.00889392		3.26698024		9.03582963		 0.00020171		-0.00030562		-0.00009095
O		2.73335141		1.11013906		3.75345012		-0.00002802		 0.00005759		-0.00017929
O		5.40071417		11.57716131		6.01607071		 0.00002802		-0.00005759		 0.00017929
O		6.62768122		7.45378871		1.13130977		 0.00002802		 0.00005759		 0.00017929
O		1.50638648		5.23351059		8.63821000		-0.00002802		-0.00005759		-0.00017929
O		0.80050677		1.10506423		5.68195261		-0.00038691		-0.00023383		-0.00027318
O		7.33355880		11.58223613		4.08756715		 0.00038691		 0.00023383		 0.00027318
O		6.10659175		7.44871389		8.97232810		 0.00038691		-0.00023383		 0.00027318
O		2.02747382		5.23858542		0.79719273		-0.00038691		 0.00023383		-0.00027318
O		0.07524997		1.11775077		3.09791530		-0.00013259		-0.00025367		-0.00000578
O		8.05881560		11.56954853		6.67160553		 0.00013259		 0.00025367		 0.00000578
O		9.28578265		7.46140043		1.78684459		 0.00013259		-0.00025367		 0.00000578
O		-1.15171602		5.22589888		7.98267518		-0.00013259		 0.00025367		-0.00000578
O		3.98348606		3.06144599		5.17100646		-0.00015380		 0.00024623		-0.00002930
O		4.15057952		9.62585438		4.59851437		 0.00015380		-0.00024623		 0.00002930
O		2.92361247		9.40509458		9.48327320		 0.00015380		 0.00024623		 0.00002930
O		5.21045311		3.28220472		0.28624657		-0.00015380		-0.00024623		-0.00002930
O		4.65489441		3.02718958		7.61534147		 0.00002901		 0.00093614		 0.00004142
O		3.47917116		9.66010973		2.15417936		-0.00002901		-0.00093614		-0.00004142
O		2.25220517		9.37083923		7.03894030		-0.00002901		 0.00093614		-0.00004142
O		5.88186146		3.31646008		2.73058053		 0.00002901		-0.00093614		 0.00004142
O		4.87379495		1.07968903		1.68133411		 0.00017430		-0.00013140		 0.00005729
O		3.26027062		11.60761028		8.08818566		-0.00017430		 0.00013140		-0.00005729
O		4.48723767		7.42333869		3.20342577		-0.00017430		-0.00013140		-0.00005729
O		3.64682896		5.26396062		6.56609506		 0.00017430		 0.00013140		 0.00005729
O		4.67919493		0.94393499		9.47448092		-0.00033056		 0.00048664		-0.00013221
O		3.45487170		11.74336431		0.29503990		 0.00033056		-0.00048664		 0.00013221
O		2.22790466		7.28758465		5.17979979		 0.00033056		 0.00048664		 0.00013221
O		5.90616198		5.39971466		4.58972104		-0.00033056		-0.00048664		-0.00013221
O		7.85626399		0.96042898		2.14147905		 0.00014263		 0.00010684		 0.00071385
O		0.27780158		11.72687139		7.62804178		-0.00014263		-0.00010684		-0.00071385
O		1.50476863		7.30407757		2.74328083		-0.00014263		 0.00010684		-0.00071385
O		6.62929800		5.38322173		7.02623999		 0.00014263		-0.00010684		 0.00071385
O		-1.10338921		0.90587325		8.03054564		 0.00013857		 0.00001973		-0.00053488
O		9.23745584		11.78142711		1.73897412		-0.00013857		-0.00001973		 0.00053488
O		8.01048880		7.24952291		6.62373507		-0.00013857		 0.00001973		 0.00053488
O		0.12357784		5.43777640		3.14578576		 0.00013857		-0.00001973		-0.00053488
O		9.65343718		1.00990882		0.27257005		-0.00041878		-0.00021523		-0.00006203
O		-1.51937054		11.67739049		9.49695078		 0.00041878		 0.00021523		 0.00006203
O		-0.29240349		7.35355847		4.61219089		 0.00041878		-0.00021523		 0.00006203
O		8.42647013		5.33374083		5.15732994		-0.00041878		 0.00021523		-0.00006203
O		1.35807613		0.93124845		8.63430303		 0.00024260		 0.00033882		 0.00000136
O		6.77599050		11.75605191		1.13521780		-0.00024260		-0.00033882		-0.00000136
O		5.54902345		7.27489811		6.01997768		-0.00024260		 0.00033882		-0.00000136
O		2.58504318		5.41240226		3.74954209		 0.00024260		-0.00033882		 0.00000136
O		2.03629998		0.92490412		0.69461301		 0.00020894		 0.00013025		 0.00031014
O		6.09776666		11.76239518		9.07490781		-0.00020894		-0.00013025		-0.00031014
O		7.32473264		7.26855378		4.19014793		-0.00020894		 0.00013025		-0.00031014
O		0.80933293		5.41874553		5.57937290		 0.00020894		-0.00013025		 0.00031014
O		2.21259335		3.03480235		6.99009150		-0.00016102		 0.00007120		 0.00022194
O		5.92147434		9.65249802		2.77942932		 0.00016102		-0.00007120		-0.00022194
O		4.69450729		9.37845200		7.66418921		 0.00016102		 0.00007120		-0.00022194
O		3.43956040		3.30884837		2.10533162		-0.00016102		-0.00007120		 0.00022194
O		8.35511654		1.08095747		5.16319145		 0.00013249		 0.00020186		-0.00020332
O		-0.22104990		11.60634183		4.60632937		-0.00013249		-0.00020186		 0.00020332
O		-1.44801695		7.42460819		9.49108820		-0.00013249		 0.00020186		 0.00020332
O		9.58208359		5.26269218		0.27843157		 0.00013249		-0.00020186		-0.00020332
O		-0.84821948		3.14264430		6.22220742		-0.00008795		-0.00030332		-0.00032706
O		8.98228717		9.54465607		3.54731341		 0.00008795		 0.00030332		 0.00032706
O		7.75532012		9.48629395		8.43207224		 0.00008795		-0.00030332		 0.00032706
O		0.37874651		3.20100641		1.33744647		-0.00008795		 0.00030332		-0.00032706
O		8.86703150		3.14771913		3.55512841		-0.00023616		 0.00021597		 0.00027532
O		-0.73296592		9.53958018		6.21439135		 0.00023616		-0.00021597		-0.00027532
O		0.49400112		9.49136878		1.32963147		 0.00023616		 0.00021597		-0.00027532
O		7.64006445		3.19593053		8.43988830		-0.00023616		-0.00021597		 0.00027532
H		-1.20765983		2.44864857		5.86171250		-0.00088375		 0.00008672		 0.00074948
H		9.34172647		10.23865074		3.90780833		 0.00088375		-0.00008672		-0.00074948
H		8.11475942		8.79229822		8.79256822		 0.00088375		 0.00008672		-0.00074948
H		0.01930722		3.89500109		0.97695155		-0.00088375		-0.00008672		 0.00074948
H		8.69894806		2.58820899		4.06412109		-0.00055991		-0.00041760		 0.00017188
H		-0.56488143		10.09909032		5.70539974		 0.00055991		 0.00041760		-0.00017188
H		0.66208562		8.93185864		0.82063986		 0.00055991		-0.00041760		-0.00017188
H		7.47198101		3.75544066		8.94888097		-0.00055991		 0.00041760		 0.00017188
