# total energy = -2552.86936611 eV

CRYSTAL
PRIMVEC
		3.14199968		0.00000000		0.00000000
		-1.57099984		2.72105027		0.00000000
		0.00000000		0.00000000		4.64685100
PRIMECORD
   5 1
Mg		0.00000000		0.00000000		0.00000000		0.00000000		0.00000000		0.00000000
O		0.00000000		1.81403477		1.02974201		0.00000000		-0.00000000		 0.00015339
O		1.57099984		0.90701676		3.61710773		0.00000000		0.00000000		-0.00015339
H		0.00000000		1.81403477		1.99953875		0.00000000		-0.00000000		-0.00012662
H		1.57099984		0.90701676		2.64730974		0.00000000		-0.00000000		 0.00012662
