# total energy = -44009.9934203 eV

CRYSTAL
PRIMVEC
		9.08164968		0.00000000		0.00000000
		0.00000000		18.04699975		0.00000000
		-1.23405997		0.00000000		5.10350569
PRIMECORD
   82 1
Si		2.18071932		1.51594801		1.51267862		 0.00021220		 0.00018372		 0.00001900
Si		5.66686857		16.53105264		3.59082525		-0.00021220		-0.00018372		-0.00001900
Si		5.66686857		1.51594801		3.59082525		-0.00021220		 0.00018372		-0.00001900
Si		2.18071932		16.53105264		1.51267862		 0.00021220		-0.00018372		 0.00001900
Si		6.72154416		10.53944789		1.51267862		 0.00015294		 0.00017607		 0.00001624
Si		1.12604464		7.50755277		3.59082525		-0.00015294		-0.00017607		-0.00001624
Si		1.12604464		10.53944789		3.59082525		-0.00015294		 0.00017607		-0.00001624
Si		6.72154416		7.50755277		1.51267862		 0.00015294		-0.00017607		 0.00001624
Si		1.62943957		3.08784172		4.10423815		-0.00006234		 0.00029197		-0.00011303
Si		6.21814741		14.95915803		0.99926572		 0.00006234		-0.00029197		 0.00011303
Si		6.21814741		3.08784172		0.99926572		 0.00006234		 0.00029197		 0.00011303
Si		1.62943957		14.95915803		4.10423815		-0.00006234		-0.00029197		-0.00011303
Si		6.17026441		12.11134250		4.10423815		-0.00023724		 0.00018640		-0.00011900
Si		1.67732257		5.93565816		0.99926572		 0.00023724		-0.00018640		 0.00011900
Si		1.67732257		12.11134250		0.99926572		 0.00023724		 0.00018640		 0.00011900
Si		6.17026441		5.93565816		4.10423815		-0.00023724		-0.00018640		-0.00011900
O		2.39433335		2.13856957		3.00290196		-0.00024937		-0.00015117		-0.00011853
O		5.45325455		15.90843018		2.10060192		 0.00024937		 0.00015117		 0.00011853
O		5.45325455		2.13856957		2.10060192		 0.00024937		-0.00015117		 0.00011853
O		2.39433335		15.90843018		3.00290196		-0.00024937		 0.00015117		-0.00011853
O		6.93515909		11.16206944		3.00290196		-0.00026541		-0.00011719		-0.00005664
O		0.91242971		6.88493030		2.10060192		 0.00026541		 0.00011719		 0.00005664
O		0.91242971		11.16206944		2.10060192		 0.00026541		-0.00011719		 0.00005664
O		6.93515909		6.88493030		3.00290196		-0.00026541		 0.00011719		-0.00005664
O		0.74650615		1.55204212		1.10797125		-0.00001548		-0.00028507		 0.00000347
O		7.10108265		16.49495762		3.99553262		 0.00001548		 0.00028507		-0.00000347
O		7.10108265		1.55204212		3.99553262		 0.00001548		-0.00028507		-0.00000347
O		0.74650615		16.49495762		1.10797125		-0.00001548		 0.00028507		 0.00000347
O		5.28733099		10.57554290		1.10797125		 0.00008781		-0.00032362		 0.00001419
O		2.56025781		7.47145775		3.99553262		-0.00008781		 0.00032362		-0.00001419
O		2.56025781		10.57554290		3.99553262		-0.00008781		-0.00032362		-0.00001419
O		5.28733099		7.47145775		1.10797125		 0.00008781		 0.00032362		 0.00001419
O		2.33945384		4.47565583		4.04860851		-0.00021127		 0.00002885		 0.00039474
O		5.50813496		13.57134392		1.05489355		 0.00021127		-0.00002885		-0.00039474
O		5.50813496		4.47565583		1.05489355		 0.00021127		 0.00002885		-0.00039474
O		2.33945384		13.57134392		4.04860851		-0.00021127		-0.00002885		 0.00039474
O		6.88027868		13.49915661		4.04860851		-0.00007891		 0.00011145		 0.00041722
O		0.96731012		4.54784404		1.05489355		 0.00007891		-0.00011145		-0.00041722
O		0.96731012		13.49915661		1.05489355		 0.00007891		 0.00011145		-0.00041722
O		6.88027868		4.54784404		4.04860851		-0.00007891		-0.00011145		 0.00041722
O		2.70004710		0.00000000		1.49073281		-0.00021743		-0.00000000		 0.00009249
O		5.14754170		0.00000000		3.61277015		 0.00021743		-0.00000000		-0.00009249
O		7.24087194		9.02349987		1.49073281		-0.00029583		0.00000000		 0.00002648
O		0.60671686		9.02349987		3.61277015		 0.00029583		0.00000000		-0.00002648
O		0.18271462		3.08964715		3.69493728		 0.00002944		-0.00027452		-0.00033329
O		7.66487237		14.95735351		1.40856659		-0.00002944		 0.00027452		 0.00033329
O		7.66487237		3.08964715		1.40856659		-0.00002944		-0.00027452		 0.00033329
O		0.18271462		14.95735351		3.69493728		 0.00002944		 0.00027452		-0.00033329
O		4.72353946		12.11314793		3.69493728		 0.00012431		-0.00027093		-0.00035221
O		3.12404844		5.93385363		1.40856659		-0.00012431		 0.00027093		 0.00035221
O		3.12404844		12.11314793		1.40856659		-0.00012431		-0.00027093		 0.00035221
O		4.72353946		5.93385363		3.69493728		 0.00012431		 0.00027093		-0.00035221
O		0.11274777		0.00000000		3.65002580		 0.00085823		0.00000000		 0.00042961
O		7.73484012		0.00000000		1.45347807		-0.00085823		0.00000000		-0.00042961
O		4.65357261		9.02349987		3.65002580		 0.00032978		0.00000000		 0.00028867
O		3.19401528		9.02349987		1.45347807		-0.00032978		0.00000000		-0.00028867
O		3.02437279		2.42371157		0.50626837		-0.00027305		-0.00051029		-0.00013230
O		4.82321601		15.62328817		4.59723550		 0.00027305		 0.00051029		 0.00013230
O		4.82321601		2.42371157		4.59723550		 0.00027305		-0.00051029		 0.00013230
O		3.02437279		15.62328817		0.50626837		-0.00027305		 0.00051029		-0.00013230
O		7.56519763		11.44721235		0.50626837		-0.00019739		-0.00045622		-0.00014616
O		0.28239117		6.59978739		4.59723550		 0.00019739		 0.00045622		 0.00014616
O		0.28239117		11.44721235		4.59723550		 0.00019739		-0.00045622		 0.00014616
O		7.56519763		6.59978739		0.50626837		-0.00019739		 0.00045622		-0.00014616
Ca		-0.61703089		5.00984664		2.55175194		0.00000000		 0.00000906		0.00000000
Ca		-0.61703089		13.03715311		2.55175194		0.00000000		-0.00000906		0.00000000
Ca		3.92379395		14.03334742		2.55175194		0.00000000		 0.00005442		0.00000000
Ca		3.92379395		4.01365324		2.55175194		0.00000000		-0.00005442		0.00000000
Mg		0.00000000		0.00000000		0.00000000		0.00000000		0.00000000		0.00000000
Mg		4.54082484		9.02349987		0.00000000		0.00000000		0.00000000		0.00000000
Mg		0.00000000		3.18709961		0.00000000		0.00000000		 0.00030015		0.00000000
Mg		0.00000000		14.85990014		0.00000000		0.00000000		-0.00030015		0.00000000
Mg		4.54082484		12.21059948		0.00000000		0.00000000		 0.00024701		0.00000000
Mg		4.54082484		5.83639936		0.00000000		0.00000000		-0.00024701		0.00000000
Mg		-0.61703089		1.58452718		2.55175194		0.00000000		-0.00011068		0.00000000
Mg		-0.61703089		16.46247347		2.55175194		0.00000000		 0.00011068		0.00000000
Mg		3.92379395		10.60802797		2.55175194		0.00000000		-0.00013883		0.00000000
Mg		3.92379395		7.43897360		2.55175194		0.00000000		 0.00013883		0.00000000
H		0.85702075		0.00000000		3.92969793		 0.00029733		-0.00000000		-0.00006245
H		6.99056714		0.00000000		1.17380595		-0.00029733		-0.00000000		 0.00006245
H		5.39784559		9.02349987		3.92969793		 0.00076614		0.00000000		 0.00005025
H		2.44974321		9.02349987		1.17380595		-0.00076614		0.00000000		-0.00005025
