# total energy = -44012.7428488 eV

CRYSTAL
PRIMVEC
		10.30889997		0.00000000		0.00000000
		0.00000000		18.04699740		0.00000000
		-1.40082487		0.00000000		5.10350340
PRIMECORD
   82 1
Si		2.47541120		1.51594848		1.51267850		-0.00033798		-0.00005524		 0.00024258
Si		6.43266287		16.53105304		3.59082490		 0.00033798		 0.00005524		-0.00024258
Si		6.43266287		1.51594848		3.59082490		 0.00033798		-0.00005524		-0.00024258
Si		2.47541120		16.53105304		1.51267850		-0.00033798		 0.00005524		 0.00024258
Si		7.62986119		10.53944821		1.51267850		-0.00024015		-0.00003952		 0.00027303
Si		1.27821288		7.50755331		3.59082490		 0.00024015		 0.00003952		-0.00027303
Si		1.27821288		10.53944821		3.59082490		 0.00024015		-0.00003952		-0.00027303
Si		7.62986119		7.50755331		1.51267850		-0.00024015		 0.00003952		 0.00027303
Si		1.84963520		3.08784233		4.10423802		-0.00006819		-0.00004936		 0.00035791
Si		7.05843887		14.95915919		0.99926642		 0.00006819		 0.00004936		-0.00035791
Si		7.05843887		3.08784233		0.99926642		 0.00006819		-0.00004936		-0.00035791
Si		1.84963520		14.95915919		4.10423802		-0.00006819		 0.00004936		 0.00035791
Si		7.00408519		12.11134310		4.10423802		 0.00005242		 0.00005286		 0.00036605
Si		1.90398888		5.93565843		0.99926642		-0.00005242		-0.00005286		-0.00036605
Si		1.90398888		12.11134310		0.99926642		-0.00005242		 0.00005286		-0.00036605
Si		7.00408519		5.93565843		4.10423802		 0.00005242		-0.00005286		 0.00036605
O		2.71789200		2.13856996		3.00290215		 0.00032663		 0.00021857		 0.00019108
O		6.19018104		15.90843053		2.10060228		-0.00032663		-0.00021857		-0.00019108
O		6.19018104		2.13856996		2.10060228		-0.00032663		 0.00021857		-0.00019108
O		2.71789200		15.90843053		3.00290215		 0.00032663		-0.00021857		 0.00019108
O		7.87234198		11.16206969		3.00290215		 0.00031916		 0.00020049		 0.00016918
O		1.03573209		6.88493080		2.10060228		-0.00031916		-0.00020049		-0.00016918
O		1.03573209		11.16206969		2.10060228		-0.00031916		 0.00020049		-0.00016918
O		7.87234198		6.88493080		3.00290215		 0.00031916		-0.00020049		 0.00016918
O		0.84738539		1.55204200		1.10797067		-0.00034929		 0.00017814		-0.00016870
O		8.06068868		16.49495746		3.99553273		 0.00034929		-0.00017814		 0.00016870
O		8.06068868		1.55204200		3.99553273		 0.00034929		 0.00017814		 0.00016870
O		0.84738539		16.49495746		1.10797067		-0.00034929		-0.00017814		-0.00016870
O		6.00183538		10.57554277		1.10797067		-0.00040065		 0.00017267		-0.00017918
O		2.90623869		7.47145773		3.99553273		 0.00040065		-0.00017267		 0.00017918
O		2.90623869		10.57554277		3.99553273		 0.00040065		 0.00017267		 0.00017918
O		6.00183538		7.47145773		1.10797067		-0.00040065		-0.00017267		-0.00017918
O		2.65559634		4.47565635		4.04860913		-0.00029976		 0.00007037		-0.00015291
O		6.25247670		13.57134415		1.05489427		 0.00029976		-0.00007037		 0.00015291
O		6.25247670		4.47565635		1.05489427		 0.00029976		 0.00007037		 0.00015291
O		2.65559634		13.57134415		4.04860913		-0.00029976		-0.00007037		-0.00015291
O		7.81004633		13.49915711		4.04860913		-0.00037862		-0.00001505		-0.00015329
O		1.09802671		4.54784442		1.05489427		 0.00037862		 0.00001505		 0.00015329
O		1.09802671		13.49915711		1.05489427		 0.00037862		-0.00001505		 0.00015329
O		7.81004633		4.54784442		4.04860913		-0.00037862		 0.00001505		-0.00015329
O		3.06491843		0.00000000		1.49073291		 0.00026407		0.00000000		 0.00014071
O		5.84315564		0.00000000		3.61277049		-0.00026407		0.00000000		-0.00014071
O		8.21936842		9.02349973		1.49073291		 0.00027610		0.00000000		 0.00013628
O		0.68870565		9.02349973		3.61277049		-0.00027610		0.00000000		-0.00013628
O		0.20740682		3.08964742		3.69493655		-0.00005718		 0.00035955		-0.00021519
O		8.70066725		14.95735410		1.40856686		 0.00005718		-0.00035955		 0.00021519
O		8.70066725		3.08964742		1.40856686		 0.00005718		 0.00035955		 0.00021519
O		0.20740682		14.95735410		3.69493655		-0.00005718		-0.00035955		-0.00021519
O		5.36185578		12.11314819		3.69493655		-0.00013214		 0.00035117		-0.00023767
O		3.54621726		5.93385437		1.40856686		 0.00013214		-0.00035117		 0.00023767
O		3.54621726		12.11314819		1.40856686		 0.00013214		 0.00035117		 0.00023767
O		5.36185578		5.93385437		3.69493655		-0.00013214		-0.00035117		-0.00023767
O		0.12798499		0.00000000		3.65002582		 0.00049833		0.00000000		 0.00013637
O		8.78008908		0.00000000		1.45347758		-0.00049833		0.00000000		-0.00013637
O		5.28243498		9.02349973		3.65002582		 0.00038323		0.00000000		 0.00008802
O		3.62563909		9.02349973		1.45347758		-0.00038323		0.00000000		-0.00008802
O		3.43307193		2.42371207		0.50626802		 0.00036221		-0.00001230		 0.00048268
O		5.47500111		15.62328945		4.59723642		-0.00036221		 0.00001230		-0.00048268
O		5.47500111		2.42371207		4.59723642		-0.00036221		-0.00001230		-0.00048268
O		3.43307193		15.62328945		0.50626802		 0.00036221		 0.00001230		 0.00048268
O		8.58752192		11.44721283		0.50626802		 0.00032701		-0.00005979		 0.00047758
O		0.32055215		6.59978766		4.59723642		-0.00032701		 0.00005979		-0.00047758
O		0.32055215		11.44721283		4.59723642		-0.00032701		-0.00005979		-0.00047758
O		8.58752192		6.59978766		0.50626802		 0.00032701		 0.00005979		 0.00047758
Ca		-0.70041347		5.00984705		2.55175170		0.00000000		-0.00005069		0.00000000
Ca		-0.70041347		13.03715448		2.55175170		0.00000000		 0.00005069		0.00000000
Ca		4.45403652		14.03334781		2.55175170		0.00000000		-0.00009337		0.00000000
Ca		4.45403652		4.01365268		2.55175170		0.00000000		 0.00009337		0.00000000
Mg		0.00000000		0.00000000		0.00000000		0.00000000		0.00000000		0.00000000
Mg		5.15444999		9.02349973		0.00000000		0.00000000		0.00000000		0.00000000
Mg		0.00000000		3.18709952		0.00000000		0.00000000		-0.00019955		0.00000000
Mg		0.00000000		14.85990098		0.00000000		0.00000000		 0.00019955		0.00000000
Mg		5.15444999		12.21060028		0.00000000		0.00000000		-0.00028861		0.00000000
Mg		5.15444999		5.83640021		0.00000000		0.00000000		 0.00028861		0.00000000
Mg		-0.70041347		1.58452741		2.55175170		0.00000000		-0.00014443		0.00000000
Mg		-0.70041347		16.46247412		2.55175170		0.00000000		 0.00014443		0.00000000
Mg		4.45403652		10.60802817		2.55175170		0.00000000		-0.00011051		0.00000000
Mg		4.45403652		7.43897438		2.55175170		0.00000000		 0.00011051		0.00000000
H		0.97283543		0.00000000		3.92969803		-0.00070936		0.00000000		-0.00001281
H		7.93523864		0.00000000		1.17380640		 0.00070936		0.00000000		 0.00001281
H		6.12728541		9.02349973		3.92969803		-0.00054854		0.00000000		 0.00004047
H		2.78078866		9.02349973		1.17380640		 0.00054854		0.00000000		-0.00004047
