# total energy = -18535.1819435 eV

CRYSTAL
PRIMVEC
		4.74481878		0.00000000		0.00000000
		-2.37240939		4.10913006		0.00000000
		0.00000000		0.00000000		13.58850528
PRIMECORD
   30 1
O		1.44310340		0.14663385		3.26912940		 0.00000454		 0.00010350		 0.00000302
O		0.92930505		3.96249809		10.31937541		-0.00000460		-0.00010357		-0.00000289
O		3.89627647		1.17644657		3.26912893		-0.00009204		-0.00004775		 0.00000310
O		-1.52386849		2.93268490		10.31937541		 0.00009200		 0.00004778		-0.00000303
O		1.77784501		2.78605058		3.26912893		 0.00008746		-0.00005561		 0.00000305
O		0.59456297		1.32308135		10.31937541		-0.00008740		 0.00005569		-0.00000298
O		3.81554278		1.51632637		7.79884999		 0.00000528		 0.00010462		-0.00002780
O		0.92923476		1.22319364		1.26024068		-0.00001485		-0.00008957		-0.00004900
O		1.52386802		2.54619392		7.79884999		-0.00009328		-0.00004762		-0.00002770
O		3.22088234		0.19314380		1.26024068		 0.00008505		 0.00003184		-0.00004901
O		1.77781408		0.04661164		7.79884999		 0.00008787		-0.00005694		-0.00002771
O		2.96710826		2.69279403		1.26024068		-0.00007020		 0.00005757		-0.00004903
O		1.44317323		2.88593830		12.32826366		 0.00001490		 0.00008950		 0.00004916
O		-1.44313480		2.59280556		5.78965482		-0.00000526		-0.00010449		 0.00002751
O		-0.84847436		3.91598813		12.32826366		-0.00008502		-0.00003192		 0.00004916
O		0.84853996		1.56293802		5.78965482		 0.00009330		 0.00004765		 0.00002751
O		-0.59469980		1.41633791		12.32826366		 0.00007014		-0.00005756		 0.00004910
O		0.59459437		4.06252029		5.78965482		-0.00008789		 0.00005687		 0.00002754
Mg		0.00000000		0.00000000		4.87942554		-0.00000005		-0.00000001		 0.00067902
Mg		0.00000000		0.00000000		8.70907880		 0.00000011		-0.00000012		-0.00067900
Mg		2.37240845		1.36971080		9.40970330		-0.00000007		 0.00000009		 0.00029273
Mg		2.37240798		1.36971080		13.23887531		 0.00000001		 0.00000005		-0.00065813
Mg		0.00000000		2.73942113		0.34962903		-0.00000005		 0.00000004		 0.00065810
Mg		0.00000000		2.73942113		4.17880151		 0.00000003		-0.00000004		-0.00029271
Si		0.00000000		0.00000000		2.14304093		 0.00000003		 0.00000001		-0.00031012
Si		0.00000000		0.00000000		11.44546341		-0.00000002		 0.00000001		 0.00030986
Si		2.37240798		1.36971080		6.67271513		 0.00000008		-0.00000002		-0.00029551
Si		2.37240845		1.36971033		2.38636336		-0.00000002		0.00000000		 0.00030415
Si		0.00000000		2.73942160		11.20214098		-0.00000004		-0.00000002		-0.00030441
Si		0.00000000		2.73942113		6.91578921		-0.00000001		 0.00000002		 0.00029603
