# total energy = -18534.9949371 eV

CRYSTAL
PRIMVEC
		4.71341321		0.00000000		0.00000000
		-2.35670660		4.08193720		0.00000000
		0.00000000		0.00000000		13.45434509
PRIMECORD
   30 1
O		1.43498491		0.14333350		3.24261882		-0.00001007		 0.00005299		-0.00003236
O		0.92172216		3.93860230		10.21172862		 0.00001006		-0.00005280		 0.00003204
O		3.87179072		1.17106657		3.24261882		-0.00004070		-0.00003509		-0.00003204
O		-1.51508365		2.91086969		10.21172862		 0.00004067		 0.00003507		 0.00003192
O		1.76334512		2.76753573		3.24261882		 0.00005080		-0.00001770		-0.00003206
O		0.59336195		1.31440054		10.21172815		-0.00005084		 0.00001772		 0.00003226
O		3.79172197		1.50394783		7.72757171		-0.00000894		 0.00005431		-0.00003414
O		0.92166640		1.21741064		1.24207634		 0.00000407		-0.00004555		-0.00002188
O		1.51509583		2.53175401		7.72757171		-0.00004276		-0.00003502		-0.00003440
O		3.19827192		0.18948123		1.24207634		 0.00003740		 0.00002621		-0.00002199
O		1.76330248		0.04623489		7.72757171		 0.00005167		-0.00001945		-0.00003451
O		2.95018242		2.67504393		1.24207634		-0.00004146		 0.00001931		-0.00002185
O		1.43504067		2.86452515		12.21227109		-0.00000402		 0.00004551		 0.00002210
O		-1.43501537		2.57798843		5.72677525		 0.00000891		-0.00005447		 0.00003425
O		-0.84156485		3.89245504		12.21227109		-0.00003741		-0.00002614		 0.00002219
O		0.84161077		1.55018225		5.72677525		 0.00004283		 0.00003498		 0.00003434
O		-0.59347535		1.40689187		12.21227109		 0.00004151		-0.00001930		 0.00002207
O		0.59340459		4.03570138		5.72677525		-0.00005169		 0.00001945		 0.00003413
Mg		0.00000000		0.00000000		4.82639501		-0.00000011		-0.00000002		 0.00025524
Mg		0.00000000		0.00000000		8.62795196		-0.00000007		-0.00000005		-0.00025482
Mg		2.35670707		1.36064527		9.31192991		 0.00000009		 0.00000002		-0.00019331
Mg		2.35670707		1.36064527		13.11272725		 0.00000004		-0.00000002		-0.00013447
Mg		0.00000000		2.72129053		0.34161972		-0.00000001		0.00000000		 0.00013391
Mg		0.00000000		2.72129053		4.14241753		 0.00000004		 0.00000007		 0.00019339
Si		0.00000000		0.00000000		2.11907485		-0.00000009		-0.00000002		-0.00018028
Si		0.00000000		0.00000000		11.33527212		-0.00000001		-0.00000007		 0.00018022
Si		2.35670707		1.36064527		6.60400150		 0.00000012		 0.00000002		-0.00016755
Si		2.35670707		1.36064527		2.36563156		0.00000000		-0.00000000		 0.00016883
Si		0.00000000		2.72129100		11.08871541		-0.00000003		 0.00000003		-0.00016888
Si		0.00000000		2.72129100		6.85034593		-0.00000001		 0.00000002		 0.00016771
