# total energy = -18499.8611633 eV	

CRYSTAL	
PRIMVEC	
		7.02600099		0.84311842		0.00000000	
		0.74736049		6.22800174		0.00000000	
		-0.43439935		-0.05212481		4.23980049	
PRIMCOORD
   30 1	
Mg		0.35361368		1.57701322		2.28101515		 0.00001234		 0.00038069		-0.00036676	
Mg		6.98534350		5.44197859		1.95879029		-0.00001234		-0.00038069		 0.00036676	
Mg		4.91747395		2.12467611		3.88790001		 0.00064672		 0.00026471		 0.00011117	
Mg		2.42148465		4.89431570		0.35190402		-0.00064672		-0.00026471		-0.00011117	
Mg		2.99304669		1.89374467		0.17807210		 0.00027249		-0.00016039		-0.00007672	
Mg		4.34591120		5.12524714		4.06173192		-0.00027249		 0.00016039		 0.00007672	
Si		0.00000000		0.00000000		0.00000000		0.00000000		0.00000000		0.00000000	
Si		0.37368025		3.11400016		0.00000000		0.00000000		0.00000000		0.00000000	
Si		2.45266188		3.37575360		2.35309118		 0.00030633		 0.00017548		-0.00041241	
Si		4.88629601		3.64323821		1.88671284		-0.00030633		-0.00017548		 0.00041241	
Si		4.51560625		0.55414913		1.88671284		 0.00057180		 0.00021416		 0.00011854	
Si		2.82335163		6.46484268		2.35309118		-0.00057180		-0.00021416		-0.00011854	
O		5.92229674		4.14813272		0.59357320		-0.00005794		 0.00076000		 0.00025824	
O		1.41666115		2.87085909		3.64623224		 0.00005794		-0.00076000		-0.00025824	
O		1.13266373		0.50421871		3.64623224		 0.00015192		-0.00040294		-0.00007364	
O		6.20629415		6.51477310		0.59357320		-0.00015192		 0.00040294		 0.00007364	
O		6.19280298		3.45013370		2.77707194		 0.00021781		 0.00084906		-0.00008160	
O		1.14615632		3.56885811		1.46273280		-0.00021781		-0.00084906		 0.00008160	
O		1.43164685		5.94795367		1.46273280		-0.00030538		-0.00016573		 0.00025236	
O		5.90731104		1.07103814		2.77707194		 0.00030538		 0.00016573		-0.00025236	
O		2.15043777		1.79263202		1.81887629		 0.00056772		 0.00011501		-0.00029583	
O		5.18852083		5.22635979		2.42092773		-0.00056772		-0.00011501		 0.00029583	
O		3.52713279		3.83002208		1.03027167		 0.00026731		 0.00018507		 0.00037584	
O		3.81182510		3.18896973		3.20953164		-0.00026731		-0.00018507		-0.00037584	
O		3.52035500		0.76004990		3.20953164		-0.00005739		-0.00036832		-0.00011161	
O		3.81860359		6.25894191		1.03027167		 0.00005739		 0.00036832		 0.00011161	
O		4.57561559		2.08365277		1.32705898		 0.00030029		-0.00023911		 0.00013856	
O		2.76334159		4.93533904		2.91274575		-0.00030029		 0.00023911		-0.00013856	
O		7.00787690		2.37552480		0.49181731		 0.00037119		 0.00012685		-0.00040614	
O		0.33108099		4.64346701		3.74798672		-0.00037119		-0.00012685		 0.00040614	
