# total energy = -66803.0277988 eV	

CRYSTAL	
PRIMVEC	
		18.34340159		2.20120376		0.00000000	
		0.80776391		6.73129199		0.00000000	
		0.00000000		0.00000000		10.88439787	
PRIMCOORD
   112 1	
Ca		14.97881791		8.42472703		2.52060878		 0.00015869		-0.00048975		 0.00003593	
Ca		4.17233650		0.50777981		8.36379094		-0.00015869		 0.00048975		-0.00003593	
Ca		4.17233650		0.50777981		2.52060878		-0.00015869		 0.00048975		 0.00003593	
Ca		14.97881791		8.42472703		8.36379094		 0.00015869		-0.00048975		-0.00003593	
Ca		13.74618630		4.95962826		2.92159016		 0.00044848		 0.00020316		 0.00002028	
Ca		5.40496812		3.97288041		7.96280956		-0.00044848		-0.00020316		-0.00002028	
Ca		5.40496812		3.97288041		2.92159016		-0.00044848		-0.00020316		 0.00002028	
Ca		13.74618630		4.95962826		7.96280956		 0.00044848		 0.00020316		-0.00002028	
Ca		7.68322555		1.97134521		8.14849623		-0.00004929		 0.00007943		-0.00021749	
Ca		11.46792886		6.96116347		2.73590348		 0.00004929		-0.00007943		 0.00021749	
Ca		11.46792886		6.96116347		8.14849623		 0.00004929		-0.00007943		-0.00021749	
Ca		7.68322555		1.97134521		2.73590348		-0.00004929		 0.00007943		 0.00021749	
Ca		2.14787752		4.62428856		8.17810242		-0.00000909		 0.00003275		 0.00011339	
Ca		17.00327689		4.30822012		2.70629730		 0.00000909		-0.00003275		-0.00011339	
Ca		17.00327689		4.30822012		8.17810242		 0.00000909		-0.00003275		 0.00011339	
Ca		2.14787752		4.62428856		2.70629730		-0.00000909		 0.00003275		-0.00011339	
Ca		6.75259921		6.13638224		0.00000000		 0.00059227		-0.00053744		-0.00000000	
Ca		12.39855521		2.79612459		0.00000000		-0.00059227		 0.00053744		-0.00000000	
Ca		3.31215533		2.40634645		5.44220078		-0.00049542		 0.00024254		0.00000000	
Ca		15.83899908		6.52616223		5.44220078		 0.00049542		-0.00024254		0.00000000	
Ca		12.48901619		2.63846634		5.44220078		-0.00040860		-0.00004019		-0.00000000	
Ca		6.66213822		6.29404049		5.44220078		 0.00040860		 0.00004019		-0.00000000	
Ca		15.70750513		6.34187042		0.00000000		 0.00007265		-0.00005500		0.00000000	
Ca		3.44364929		2.59063826		0.00000000		-0.00007265		 0.00005500		0.00000000	
Ca		9.57557721		4.46625342		0.00000000		0.00000000		0.00000000		0.00000000	
Ca		0.00000000		0.00000000		5.44220078		0.00000000		0.00000000		0.00000000	
Ca		9.57557721		4.46625342		5.44220078		0.00000000		0.00000000		0.00000000	
Ca		0.00000000		0.00000000		0.00000000		0.00000000		0.00000000		0.00000000	
Si		8.27028527		5.76519919		8.18267313		 0.00031663		-0.00029722		 0.00001220	
Si		10.88086914		3.16730764		2.70172658		-0.00031663		 0.00029722		-0.00001220	
Si		10.88086914		3.16730764		8.18267313		-0.00031663		 0.00029722		 0.00001220	
Si		8.27028527		5.76519919		2.70172658		 0.00031663		-0.00029722		-0.00001220	
Si		1.65973479		1.65474839		8.14392552		 0.00003564		 0.00039245		 0.00015918	
Si		17.49142147		7.27775844		2.74047420		-0.00003564		-0.00039245		-0.00015918	
Si		17.49142147		7.27775844		8.14392552		-0.00003564		-0.00039245		 0.00015918	
Si		1.65973479		1.65474839		2.74047420		 0.00003564		 0.00039245		-0.00015918	
Si		12.77100195		6.41209943		5.44220078		 0.00025501		 0.00037888		0.00000000	
Si		6.38015246		2.52040925		5.44220078		-0.00025501		-0.00037888		0.00000000	
Si		15.52842696		3.42580429		0.00000000		-0.00000471		-0.00045954		0.00000000	
Si		3.62272745		5.50670254		0.00000000		 0.00000471		 0.00045954		0.00000000	
Si		6.43180302		2.64801607		0.00000000		-0.00034479		 0.00034649		0.00000000	
Si		12.71935140		6.28449261		0.00000000		 0.00034479		-0.00034649		0.00000000	
Si		3.60064059		5.62546169		5.44220078		-0.00031689		-0.00053570		0.00000000	
Si		15.55051382		3.30704699		5.44220078		 0.00031689		 0.00053570		0.00000000	
Mg		9.17169895		1.10060373		5.44220078		0.00000000		0.00000000		0.00000000	
Mg		0.40387826		3.36564969		0.00000000		0.00000000		0.00000000		0.00000000	
Mg		9.17169895		1.10060373		0.00000000		0.00000000		0.00000000		0.00000000	
Mg		0.40387826		3.36564969		5.44220078		0.00000000		0.00000000		0.00000000	
O		5.50333270		2.36543357		1.32789610		-0.00019950		 0.00001507		-0.00012270	
O		13.64782356		6.56707511		9.55650362		 0.00019950		-0.00001507		 0.00012270	
O		13.64782356		6.56707511		1.32789610		 0.00019950		-0.00001507		-0.00012270	
O		5.50333270		2.36543357		9.55650362		-0.00019950		 0.00001507		 0.00012270	
O		4.48743131		5.56070866		4.11430468		-0.00031843		 0.00045710		 0.00017122	
O		14.66372311		3.37179817		6.77009688		 0.00031843		-0.00045710		-0.00017122	
O		14.66372311		3.37179817		4.11430468		 0.00031843		-0.00045710		 0.00017122	
O		4.48743131		5.56070866		6.77009688		-0.00031843		 0.00045710		-0.00017122	
O		13.46617182		7.23790417		4.13933646		-0.00000259		 0.00001309		-0.00039255	
O		5.68498259		1.69460266		6.74506325		 0.00000259		-0.00001309		 0.00039255	
O		5.68498259		1.69460266		4.13933646		 0.00000259		-0.00001309		-0.00039255	
O		13.46617182		7.23790417		6.74506325		-0.00000259		 0.00001309		 0.00039255	
O		15.01403311		4.10646389		1.30286247		 0.00001363		-0.00009584		-0.00027204	
O		4.13712131		4.82604478		9.58153724		-0.00001363		 0.00009584		 0.00027204	
O		4.13712131		4.82604478		1.30286247		-0.00001363		 0.00009584		-0.00027204	
O		15.01403311		4.10646389		9.58153724		 0.00001363		-0.00009584		 0.00027204	
O		9.35673161		6.30358652		9.36711456		-0.00016877		 0.00025370		 0.00033766	
O		9.79442281		2.62892031		1.51728516		 0.00016877		-0.00025370		-0.00033766	
O		9.79442281		2.62892031		9.36711456		 0.00016877		-0.00025370		 0.00033766	
O		9.35673161		6.30358652		1.51728516		-0.00016877		 0.00025370		-0.00033766	
O		0.67264331		1.94431259		6.95948594		 0.00041712		-0.00009182		 0.00024692	
O		18.47851111		6.98819609		3.92491562		-0.00041712		 0.00009182		-0.00024692	
O		18.47851111		6.98819609		6.95948594		-0.00041712		 0.00009182		 0.00024692	
O		0.67264331		1.94431259		3.92491562		 0.00041712		-0.00009182		-0.00024692	
O		6.87149137		6.19908269		8.55731470		 0.00038665		-0.00021300		-0.00051583	
O		12.27966305		2.73342599		2.32708501		-0.00038665		 0.00021300		 0.00051583	
O		12.27966305		2.73342599		8.55731470		-0.00038665		 0.00021300		-0.00051583	
O		6.87149137		6.19908269		2.32708501		 0.00038665		-0.00021300		 0.00051583	
O		3.20505576		2.44192560		7.76928394		-0.00014747		-0.00000783		-0.00015961	
O		15.94609865		6.49058307		3.11511577		 0.00014747		 0.00000783		 0.00015961	
O		15.94609865		6.49058307		7.76928394		 0.00014747		 0.00000783		-0.00015961	
O		3.20505576		2.44192560		3.11511577		-0.00014747		-0.00000783		 0.00015961	
O		7.29768373		4.16570583		0.00000000		 0.00009816		-0.00022626		0.00000000	
O		11.85347068		4.76680100		0.00000000		-0.00009816		 0.00022626		0.00000000	
O		3.07902671		6.97665106		5.44220078		 0.00018273		 0.00043878		-0.00000000	
O		16.07212955		1.95585577		5.44220078		-0.00018273		-0.00043878		-0.00000000	
O		7.94370456		4.20076768		7.82697213		-0.00007510		-0.00022722		 0.00008551	
O		11.20744985		4.73173915		3.05742759		 0.00007510		 0.00022722		-0.00008551	
O		11.20744985		4.73173915		7.82697213		 0.00007510		 0.00022722		 0.00008551	
O		7.94370456		4.20076768		3.05742759		-0.00007510		-0.00022722		-0.00008551	
O		2.42266542		6.85542735		8.49962837		-0.00000096		 0.00040049		-0.00002481	
O		16.72848900		2.07707948		2.38477135		 0.00000096		-0.00040049		 0.00002481	
O		16.72848900		2.07707948		8.49962837		 0.00000096		-0.00040049		-0.00002481	
O		2.42266542		6.85542735		2.38477135		-0.00000096		 0.00040049		 0.00002481	
O		7.38141427		1.57906186		0.00000000		 0.00022303		-0.00014069		0.00000000	
O		11.76974014		7.35344682		0.00000000		-0.00022303		 0.00014069		0.00000000	
O		2.36298378		4.29403317		5.44220078		 0.00035814		-0.00083430		0.00000000	
O		16.78817063		4.63847366		5.44220078		-0.00035814		 0.00083430		0.00000000	
O		11.19656069		6.46399201		5.44220078		 0.00036337		 0.00014486		0.00000000	
O		7.95459373		2.46851482		5.44220078		-0.00036337		-0.00014486		0.00000000	
O		17.16151156		3.86260315		0.00000000		-0.00024207		 0.00030456		0.00000000	
O		1.98964285		5.06990553		0.00000000		 0.00024207		-0.00030456		0.00000000	
O		13.15537985		4.97942238		5.44220078		 0.00039585		 0.00069694		0.00000000	
O		5.99577457		3.95308445		5.44220078		-0.00039585		-0.00069694		0.00000000	
O		14.78395101		1.85766669		0.00000000		-0.00041399		-0.00037048		-0.00000000	
O		4.36720340		7.07484014		0.00000000		 0.00041399		 0.00037048		-0.00000000	
O		8.82929440		6.63902045		6.85281869		-0.00019876		 0.00055862		 0.00008720	
O		10.32186001		2.29348822		4.03158103		 0.00019876		-0.00055862		-0.00008720	
O		10.32186001		2.29348822		6.85281869		 0.00019876		-0.00055862		 0.00008720	
O		8.82929440		6.63902045		4.03158103		-0.00019876		 0.00055862		-0.00008720	
O		1.29717217		2.41798016		9.47378181		-0.00011323		 0.00048583		 0.00024450	
O		17.85398224		6.51452667		1.41061790		 0.00011323		-0.00048583		-0.00024450	
O		17.85398224		6.51452667		9.47378181		 0.00011323		-0.00048583		 0.00024450	
O		1.29717217		2.41798016		1.41061790		-0.00011323		 0.00048583		-0.00024450	
