# total energy = -66813.7564133 eV	

CRYSTAL	
PRIMVEC	
		18.34339916		0.73373523		0.00000000	
		0.26925777		6.73129745		0.00000000	
		0.00000000		0.00000000		10.88440628	
PRIMCOORD
   112 1	
Ca		14.44088895		7.29097433		2.52060853		-0.00004947		-0.00008200		-0.00020267	
Ca		4.17176063		0.17406201		8.36379041		 0.00004947		 0.00008200		 0.00020267	
Ca		4.17176063		0.17406201		2.52060853		 0.00004947		 0.00008200		-0.00020267	
Ca		14.44088895		7.29097433		8.36379041		-0.00004947		-0.00008200		 0.00020267	
Ca		13.47750898		3.89217461		2.92159094		 0.00029674		-0.00009291		-0.00010750	
Ca		5.13514060		3.57286174		7.96280984		-0.00029674		 0.00009291		 0.00010750	
Ca		5.13514060		3.57286174		2.92159094		-0.00029674		 0.00009291		-0.00010750	
Ca		13.47750898		3.89217461		7.96280984		 0.00029674		-0.00009291		 0.00010750	
Ca		7.59804973		1.36690864		8.14849618		-0.00012176		-0.00012316		 0.00003530	
Ca		11.01459986		6.09812771		2.73590276		 0.00012176		 0.00012316		-0.00003530	
Ca		11.01459986		6.09812771		8.14849618		 0.00012176		 0.00012316		 0.00003530	
Ca		7.59804973		1.36690864		2.73590276		-0.00012176		-0.00012316		-0.00003530	
Ca		1.79344916		4.49498929		8.17810223		-0.00002466		-0.00014220		-0.00000317	
Ca		16.81920043		2.97004706		2.70629671		 0.00002466		 0.00014220		 0.00000317	
Ca		16.81920043		2.97004706		8.17810223		 0.00002466		 0.00014220		-0.00000317	
Ca		1.79344916		4.49498929		2.70629671		-0.00002466		-0.00014220		 0.00000317	
Ca		6.32028786		5.64805215		0.00000000		-0.00028296		 0.00013273		0.00000000	
Ca		12.29236173		1.81698236		0.00000000		 0.00028296		-0.00013273		0.00000000	
Ca		3.14909513		2.16093911		5.44219947		-0.00078285		 0.00007993		0.00000000	
Ca		15.46355446		5.30409540		5.44219947		 0.00078285		-0.00007993		0.00000000	
Ca		12.39649970		1.65044716		5.44219947		 0.00055852		-0.00046306		0.00000000	
Ca		6.21614988		5.81458919		5.44219947		-0.00055852		 0.00046306		0.00000000	
Ca		15.34573789		5.12868223		0.00000000		-0.00048336		 0.00030105		0.00000000	
Ca		3.26691353		2.33635412		0.00000000		 0.00048336		-0.00030105		0.00000000	
Ca		9.30632479		3.73251817		0.00000000		0.00000000		0.00000000		0.00000000	
Ca		0.00000000		0.00000000		5.44219947		0.00000000		0.00000000		0.00000000	
Ca		9.30632479		3.73251817		5.44219947		0.00000000		0.00000000		0.00000000	
Ca		0.00000000		0.00000000		0.00000000		0.00000000		0.00000000		0.00000000	
Si		7.88288615		5.15006387		8.18267339		-0.00011062		-0.00004532		-0.00022725	
Si		10.72976343		2.31497064		2.70172555		 0.00011062		 0.00004532		 0.00022725	
Si		10.72976343		2.31497064		8.18267339		 0.00011062		 0.00004532		-0.00022725	
Si		7.88288615		5.15006387		2.70172555		-0.00011062		-0.00004532		 0.00022725	
Si		1.54158749		1.53614799		8.14392502		-0.00007807		 0.00003244		 0.00020971	
Si		17.07106393		5.92888836		2.74047392		 0.00007807		-0.00003244		-0.00020971	
Si		17.07106393		5.92888836		8.14392502		 0.00007807		-0.00003244		 0.00020971	
Si		1.54158749		1.53614799		2.74047392		-0.00007807		 0.00003244		-0.00020971	
Si		12.37493264		5.43794591		5.44219947		-0.00026784		-0.00058843		-0.00000000	
Si		6.23771694		2.02708861		5.44219947		 0.00026784		 0.00058843		-0.00000000	
Si		15.40160883		2.19874939		0.00000000		-0.00005987		 0.00005499		-0.00000000	
Si		3.21104259		5.26628696		0.00000000		 0.00005987		-0.00005499		-0.00000000	
Si		6.27951459		2.15174539		0.00000000		 0.00028814		-0.00020310		0.00000000	
Si		12.33313500		5.31328912		0.00000000		-0.00028814		 0.00020310		0.00000000	
Si		3.17909955		5.38799361		5.44219947		 0.00010177		 0.00053382		0.00000000	
Si		15.43355187		2.07704091		5.44219947		-0.00010177		-0.00053382		0.00000000	
Mg		9.17169958		0.36686762		5.44219947		0.00000000		0.00000000		0.00000000	
Mg		0.13462521		3.36565056		0.00000000		0.00000000		0.00000000		0.00000000	
Mg		9.17169958		0.36686762		0.00000000		0.00000000		0.00000000		0.00000000	
Mg		0.13462521		3.36565056		5.44219947		0.00000000		0.00000000		0.00000000	
O		5.36493771		1.94177316		1.32789775		-0.00009425		 0.00005803		-0.00003938	
O		13.24771371		5.52326135		9.55650303		 0.00009425		-0.00005803		 0.00003938	
O		13.24771371		5.52326135		1.32789775		 0.00009425		-0.00005803		-0.00003938	
O		5.36493771		1.94177316		9.55650303		-0.00009425		 0.00005803		 0.00003938	
O		4.07978305		5.25063120		4.11430356		-0.00001242		 0.00054349		-0.00016720	
O		14.53286654		2.21440331		6.77009722		 0.00001242		-0.00054349		 0.00016720	
O		14.53286654		2.21440331		4.11430356		 0.00001242		-0.00054349		-0.00016720	
O		4.07978305		5.25063120		6.77009722		-0.00001242		 0.00054349		 0.00016720	
O		13.00984273		6.21537150		4.13933662		 0.00008540		-0.00016825		-0.00003178	
O		5.60280686		1.24966485		6.74506232		-0.00008540		 0.00016825		 0.00003178	
O		5.60280686		1.24966485		4.13933662		-0.00008540		 0.00016825		-0.00003178	
O		13.00984273		6.21537150		6.74506232		 0.00008540		-0.00016825		 0.00003178	
O		14.82695543		2.92779046		1.30286285		-0.00011707		-0.00050611		-0.00007690	
O		3.78569415		4.53724405		9.58153609		 0.00011707		 0.00050611		 0.00007690	
O		3.78569415		4.53724405		1.30286285		 0.00011707		 0.00050611		-0.00007690	
O		14.82695543		2.92779046		9.58153609		-0.00011707		-0.00050611		 0.00007690	
O		8.93621331		5.60550916		9.36711386		-0.00008046		 0.00002211		 0.00023705	
O		9.67643628		1.85952535		1.51728508		 0.00008046		-0.00002211		-0.00023705	
O		9.67643628		1.85952535		9.36711386		 0.00008046		-0.00002211		 0.00023705	
O		8.93621331		5.60550916		1.51728508		-0.00008046		 0.00002211		-0.00023705	
O		0.52137829		1.90865154		6.95948639		-0.00009362		-0.00002050		 0.00044711	
O		18.09127313		5.55638298		3.92491439		 0.00009362		 0.00002050		-0.00044711	
O		18.09127313		5.55638298		6.95948639		 0.00009362		 0.00002050		 0.00044711	
O		0.52137829		1.90865154		3.92491439		-0.00009362		-0.00002050		-0.00044711	
O		6.43524791		5.70171094		8.55731381		 0.00040512		-0.00007125		-0.00013681	
O		12.17740168		1.76332540		2.32708513		-0.00040512		 0.00007125		 0.00013681	
O		12.17740168		1.76332540		8.55731381		-0.00040512		 0.00007125		-0.00013681	
O		6.43524791		5.70171094		2.32708513		 0.00040512		-0.00007125		 0.00013681	
O		3.03806553		2.20555839		7.76928460		 0.00007907		 0.00027531		-0.00031222	
O		15.57458405		5.25947612		3.11511434		-0.00007907		-0.00027531		 0.00031222	
O		15.57458405		5.25947612		7.76928460		-0.00007907		-0.00027531		-0.00031222	
O		3.03806553		2.20555839		3.11511434		 0.00007907		 0.00027531		 0.00031222	
O		7.03064042		3.61393607		0.00000000		 0.00006059		 0.00057835		0.00000000	
O		11.58201100		3.85109844		0.00000000		-0.00006059		-0.00057835		0.00000000	
O		2.54273000		6.79468418		5.44219947		 0.00088818		-0.00029743		-0.00000000	
O		16.06991959		0.67035033		5.44219947		-0.00088818		 0.00029743		-0.00000000	
O		7.68010845		3.59690346		7.82697115		-0.00020561		-0.00020093		-0.00013321	
O		10.93254297		3.86813105		3.05742779		 0.00020561		 0.00020093		 0.00013321	
O		10.93254297		3.86813105		7.82697115		 0.00020561		 0.00020093		-0.00013321	
O		7.68010845		3.59690346		3.05742779		-0.00020561		-0.00020093		 0.00013321	
O		1.88981616		6.72555688		8.49962726		-0.00014523		 0.00003782		-0.00003232	
O		16.72283526		0.73947947		2.38477168		 0.00014523		-0.00003782		 0.00003232	
O		16.72283526		0.73947947		8.49962726		 0.00014523		-0.00003782		-0.00003232	
O		1.88981616		6.72555688		2.38477168		-0.00014523		 0.00003782		 0.00003232	
O		7.32514053		0.99530097		0.00000000		-0.00061384		 0.00060931		-0.00000000	
O		11.28751089		6.46973537		0.00000000		 0.00061384		-0.00060931		-0.00000000	
O		2.03745724		4.14405831		5.44219947		-0.00033150		 0.00008150		0.00000000	
O		16.57519234		3.32097620		5.44219947		 0.00033150		-0.00008150		0.00000000	
O		10.78094389		5.61814319		5.44219947		-0.00029478		-0.00040223		-0.00000000	
O		7.83170753		1.84689316		5.44219947		 0.00029478		 0.00040223		-0.00000000	
O		17.01514526		2.50724569		0.00000000		 0.00021358		 0.00002978		-0.00000000	
O		1.59750433		4.95779066		0.00000000		-0.00021358		-0.00002978		-0.00000000	
O		12.87934257		3.96011598		5.44219947		-0.00072281		-0.00014890		0.00000000	
O		5.73330701		3.50491853		5.44219947		 0.00072281		 0.00014890		0.00000000	
O		14.77716468		0.67576413		0.00000000		 0.00014714		-0.00026500		0.00000000	
O		3.83548490		6.78927039		0.00000000		-0.00014714		 0.00026500		0.00000000	
O		8.37641342		5.98702101		6.85281867		-0.00000451		 0.00011785		-0.00030188	
O		10.23623800		1.47801350		4.03158210		 0.00000451		-0.00011785		 0.00030188	
O		10.23623800		1.47801350		6.85281867		 0.00000451		-0.00011785		-0.00030188	
O		8.37641342		5.98702101		4.03158210		-0.00000451		 0.00011785		 0.00030188	
O		1.11354161		2.33624213		9.47378158		-0.00006314		 0.00006198		 0.00008966	
O		17.49910797		5.12879238		1.41061737		 0.00006314		-0.00006198		-0.00008966	
O		17.49910797		5.12879238		9.47378158		 0.00006314		-0.00006198		 0.00008966	
O		1.11354161		2.33624213		1.41061737		-0.00006314		 0.00006198		-0.00008966	
