# total energy = -14247.8306715 eV	

CRYSTAL	
PRIMVEC	
		6.95700004		0.00000000		0.00000000	
		0.00000000		7.72999927		0.00000000	
		0.00000000		0.00000000		5.01000010	
PRIMCOORD
   24 1	
Ca		2.29581001		1.31410009		2.55510019		-0.00031907		-0.00046448		 0.00061392	
Ca		4.66119003		6.41589988		2.55510019		 0.00031907		 0.00046448		 0.00061392	
Ca		1.18269001		5.17909972		2.45489991		 0.00031907		-0.00046448		-0.00061392	
Ca		5.77431004		2.55090025		2.45489991		-0.00031907		 0.00046448		-0.00061392	
Si		0.97398001		2.78280002		4.75950009		-0.00048427		-0.00004782		-0.00049884	
Si		5.98302004		4.94719995		4.75950009		 0.00048427		 0.00004782		-0.00049884	
Si		2.50452002		6.64780035		0.25050000		 0.00048427		-0.00004782		 0.00049884	
Si		4.45248003		1.08220032		0.25050000		-0.00048427		 0.00004782		 0.00049884	
Mg		0.00000000		0.00000000		0.00000000		0.00000000		0.00000000		-0.00061024	
Mg		3.47850002		3.86500033		0.00000000		0.00000000		0.00000000		 0.00061024	
O		3.47850002		0.00000000		0.95189988		0.00000000		0.00000000		 0.00013446	
O		0.00000000		3.86500033		4.05810022		0.00000000		0.00000000		-0.00013446	
O		0.97398001		2.78280002		1.30260016		-0.00092881		 0.00007774		-0.00066461	
O		5.98302004		4.94719995		1.30260016		 0.00092881		-0.00007774		-0.00066461	
O		2.50452002		6.64780035		3.70739993		 0.00092881		 0.00007774		 0.00066461	
O		4.45248003		1.08220032		3.70739993		-0.00092881		-0.00007774		 0.00066461	
O		0.55656000		1.39140001		4.05810022		-0.00061169		 0.00008597		 0.00052857	
O		6.40044004		6.33859996		4.05810022		 0.00061169		-0.00008597		 0.00052857	
O		1.25226001		7.11159989		0.95189988		-0.00064079		 0.00049659		 0.00015310	
O		5.70474003		0.61840008		0.95189988		 0.00064079		-0.00049659		 0.00015310	
O		2.92194002		5.25640034		0.95189988		 0.00061169		 0.00008597		-0.00052857	
O		4.03506002		2.47360032		0.95189988		-0.00061169		-0.00008597		-0.00052857	
O		2.22624001		3.24660025		4.05810022		 0.00064079		 0.00049659		-0.00015310	
O		4.73076003		4.48339972		4.05810022		-0.00064079		-0.00049659		-0.00015310	
