# total energy = -14248.8056029 eV	

CRYSTAL	
PRIMVEC	
		7.15024973		0.00000000		0.00000000	
		0.00000000		7.72999913		0.00000000	
		0.00000000		0.00000000		5.01000123	
PRIMCOORD
   24 1	
Ca		2.35958313		1.31410007		2.55509956		 0.00015314		 0.00002909		-0.00024668	
Ca		4.79066661		6.41589978		2.55509956		-0.00015314		-0.00002909		-0.00024668	
Ca		1.21554317		5.17909963		2.45490025		-0.00015314		 0.00002909		 0.00024668	
Ca		5.93470656		2.55090021		2.45490025		 0.00015314		-0.00002909		 0.00024668	
Si		1.00103496		2.78279997		4.75950010		-0.00019291		 0.00016895		-0.00034512	
Si		6.14921477		4.94719987		4.75950010		 0.00019291		-0.00016895		-0.00034512	
Si		2.57408990		6.64779954		0.25049970		 0.00019291		 0.00016895		 0.00034512	
Si		4.57615983		1.08220031		0.25049970		-0.00019291		-0.00016895		 0.00034512	
Mg		0.00000000		0.00000000		0.00000000		0.00000000		0.00000000		-0.00085087	
Mg		3.57512487		3.86499957		0.00000000		0.00000000		0.00000000		 0.00085087	
O		3.57512487		0.00000000		0.95189988		0.00000000		0.00000000		 0.00062684	
O		0.00000000		3.86499957		4.05809993		0.00000000		0.00000000		-0.00062684	
O		1.00103496		2.78279997		1.30259961		-0.00054247		 0.00011103		-0.00039042	
O		6.14921477		4.94719987		1.30259961		 0.00054247		-0.00011103		-0.00039042	
O		2.57408990		6.64779954		3.70740020		 0.00054247		 0.00011103		 0.00039042	
O		4.57615983		1.08220031		3.70740020		-0.00054247		-0.00011103		 0.00039042	
O		0.57201998		1.39139999		4.05809993		-0.00032614		-0.00005912		 0.00033464	
O		6.57822976		6.33859986		4.05809993		 0.00032614		 0.00005912		 0.00033464	
O		1.28704495		7.11159977		0.95189988		-0.00014095		 0.00061371		 0.00010743	
O		5.86320478		0.61840007		0.95189988		 0.00014095		-0.00061371		 0.00010743	
O		3.00310489		5.25639955		0.95189988		 0.00032614		-0.00005912		-0.00033464	
O		4.14714485		2.47359958		0.95189988		-0.00032614		 0.00005912		-0.00033464	
O		2.28807992		3.24660021		4.05809993		 0.00014095		 0.00061371		-0.00010743	
O		4.86216982		4.48339964		4.05809993		-0.00014095		-0.00061371		-0.00010743	
