# total energy = -18389.2446616 eV	

CRYSTAL	
PRIMVEC	
		5.07967065		0.00039483		-0.00000481	
		-0.00066928		8.87598498		-0.00000481	
		0.00000000		-0.00000481		6.62961426	
PRIMCOORD
   28 1	
Mg		-0.00001782		0.00001878		0.00001348		-0.00000080		-0.00000096		-0.00000067	
Mg		2.53947854		4.43817064		-0.00002167		-0.00000080		 0.00000199		 0.00000253	
Mg		-0.00001926		0.00001974		3.31479702		-0.00000083		-0.00000105		 0.00000066	
Mg		2.53947613		4.43816487		3.31482013		-0.00000059		 0.00000222		-0.00000256	
Ca		5.00557744		3.15802544		1.65740332		 0.00019069		-0.00007020		 0.00000137	
Ca		0.07337337		5.71848052		4.97221093		-0.00019108		 0.00006387		-0.00000147	
Ca		2.46588175		1.28053233		4.97220804		 0.00018910		 0.00006872		-0.00000137	
Ca		2.61306810		7.59575070		1.65739321		-0.00018599		-0.00006545		 0.00000164	
Si		2.41287727		1.61257086		1.65739658		 0.00009772		 0.00087434		 0.00001348	
Si		2.66611351		7.26374828		4.97220853		-0.00006623		-0.00086854		-0.00001467	
Si		4.95261051		2.82600184		4.97221190		 0.00012567		-0.00088768		-0.00000848	
Si		0.12638074		6.05043816		1.65739803		-0.00011272		 0.00088283		 0.00001001	
O		3.95502924		1.06922558		1.65740284		-0.00010273		 0.00020885		-0.00000173	
O		1.12403088		7.80722597		4.97220564		 0.00008076		-0.00020491		 0.00000168	
O		1.41503357		3.36916414		4.97220997		-0.00011747		-0.00020547		 0.00000141	
O		3.66401065		5.50715837		1.65739562		 0.00010714		 0.00020099		-0.00000135	
O		2.25506420		3.24003259		1.65739658		 0.00041860		-0.00059674		-0.00000197	
O		2.82386253		5.63628029		4.97220179		-0.00041497		 0.00061721		 0.00000173	
O		-0.28462186		1.19811109		4.97221575		 0.00041577		 0.00060790		 0.00000164	
O		5.36355630		7.67833035		1.65740140		-0.00041242		-0.00062313		-0.00000176	
O		1.60989131		1.05403811		0.37193514		 0.00051894		-0.00013976		 0.00003660	
O		3.46918372		7.82220206		6.25767190		-0.00052431		 0.00013907		-0.00004498	
O		4.14956100		3.38440554		6.25768056		 0.00051297		 0.00014660		-0.00003409	
O		0.92950103		5.49210186		0.37193032		-0.00051600		-0.00014850		 0.00003619	
O		3.46917939		7.82221362		3.68672878		-0.00053264		 0.00013312		 0.00005873	
O		1.60987928		1.05405208		2.94287344		 0.00052658		-0.00013432		-0.00004906	
O		0.92949333		5.49208260		2.94287440		-0.00052160		-0.00014450		-0.00004521	
O		4.14955089		3.38439736		3.68673504		 0.00051727		 0.00014350		 0.00004169	
