# total energy = -18389.7255828 eV	

CRYSTAL	
PRIMVEC	
		5.12677098		-0.00024556		-0.00056817	
		0.00060187		8.99355283		-0.00000963	
		0.00003852		0.00001444		6.70878730	
PRIMCOORD
   28 1	
Mg		0.00000000		0.00000000		-0.00001204		 0.00000296		-0.00000292		 0.00000354	
Mg		2.56367728		4.49665700		-0.00028505		 0.00000267		 0.00000446		 0.00000370	
Mg		0.00001926		0.00000578		3.35440569		 0.00000284		-0.00000280		-0.00000320	
Mg		2.56369847		4.49666567		3.35410523		 0.00000239		 0.00000440		-0.00000406	
Ca		5.02855799		3.19329917		1.67691707		 0.00006188		 0.00016057		 0.00000129	
Ca		0.09886061		5.80003169		5.03128376		-0.00006572		-0.00015726		-0.00000107	
Ca		2.46506079		1.30313057		5.03160540		 0.00006106		-0.00015563		 0.00000207	
Ca		2.66234529		7.69021618		1.67661614		-0.00005513		 0.00015409		-0.00000258	
Si		2.42057308		1.62699516		1.67714579		 0.00021654		-0.00027696		-0.00001054	
Si		2.70685226		7.36632511		5.03106949		-0.00026101		 0.00027850		 0.00001065	
Si		4.98405150		2.86943939		5.03123994		 0.00021697		 0.00029110		 0.00001816	
Si		0.14337625		6.12389146		1.67696667		-0.00032765		-0.00028739		-0.00001833	
O		3.97115515		1.08317945		1.67705382		 0.00013159		 0.00035564		-0.00001661	
O		1.15623167		7.91014370		5.03115520		-0.00009249		-0.00036914		 0.00001628	
O		1.40793048		3.41332539		5.03173059		 0.00013948		-0.00035633		 0.00001835	
O		3.71941926		5.58000402		1.67648083		-0.00007361		 0.00038231		-0.00001828	
O		2.27140054		3.26492036		1.67696570		 0.00011066		-0.00004881		-0.00001909	
O		2.85603540		5.72840664		5.03125583		-0.00012751		 0.00003265		 0.00001928	
O		-0.29209281		1.23176216		5.03163477		 0.00010213		 0.00006462		 0.00001660	
O		5.41954415		7.76156147		1.67656510		-0.00011431		-0.00005495		-0.00001637	
O		1.62200296		1.06244751		0.38281463		 0.00004038		 0.00020329		 0.00004416	
O		3.50541082		7.93086023		6.32538765		-0.00003324		-0.00018917		-0.00002311	
O		4.18551027		3.43365192		6.32572999		 0.00004115		-0.00022135		-0.00005789	
O		0.94185536		5.55965294		0.38250647		-0.00001526		 0.00019917		 0.00000665	
O		3.50549412		7.93038403		3.73661940		-0.00002687		-0.00018274		-0.00001825	
O		1.62194422		1.06289001		2.97160887		 0.00003405		 0.00019732		-0.00000268	
O		0.94178988		5.55921863		2.97126605		-0.00000601		 0.00019371		 0.00004109	
O		4.18559791		3.43411512		3.73691071		 0.00003205		-0.00021638		 0.00001022	
