# total energy = -18376.0262534 eV	

CRYSTAL	
PRIMVEC	
		6.16501975		-0.00117486		0.00112189	
		-0.00023593		14.56121889		0.00047187	
		-0.00123745		-0.00041890		8.08608427	
PRIMCOORD
   28 1	
Mg		0.00053880		-0.00379326		-0.00057250		-0.00010951		 0.00009672		 0.00005939	
Mg		3.09518680		7.28669561		0.00038568		-0.00004396		-0.00019008		 0.00011926	
Mg		0.00010641		-0.00391171		4.04265068		-0.00013564		 0.00002425		 0.00008909	
Mg		3.09445541		7.28634700		4.04487617		-0.00005533		-0.00020473		-0.00007889	
Ca		4.29669728		2.79892180		2.02397262		 0.00047509		-0.00050821		-0.00006082	
Ca		1.85581357		11.75660095		6.06280645		-0.00003798		 0.00025569		 0.00010560	
Ca		1.21004266		4.47863012		6.06710528		-0.00064802		 0.00006502		-0.00005998	
Ca		4.95581056		10.08846547		2.02138745		 0.00050034		 0.00003196		 0.00005764	
Si		0.78257035		1.54243220		2.02205192		 0.00013507		-0.00022683		 0.00007068	
Si		5.37107107		13.01333466		6.06487738		-0.00001541		 0.00034825		 0.00010823	
Si		3.85910000		5.73077755		6.06583701		-0.00033257		 0.00011435		 0.00019049	
Si		2.30782023		8.83041438		2.02270339		 0.00020046		-0.00014539		-0.00041281	
O		2.29474317		2.10534034		2.02355468		-0.00029969		 0.00007322		 0.00000564	
O		3.85345537		12.46489126		6.06301783		 0.00061204		-0.00005698		-0.00001246	
O		-0.80099880		5.15097021		6.06520143		-0.00007486		 0.00075564		-0.00001313	
O		6.95606546		9.38079726		2.02256616		 0.00064425		-0.00015348		 0.00006044	
O		2.47209647		7.16594312		2.02276117		-0.00085647		 0.00031133		 0.00004596	
O		3.73057369		7.39834437		6.06567908		 0.00017396		-0.00052999		-0.00003406	
O		-0.62846484		0.11747203		6.06410409		-0.00036992		-0.00032052		 0.00002785	
O		6.80205529		14.43667507		2.02304333		-0.00032322		 0.00025748		-0.00011567	
O		-0.15462216		1.93280301		0.68816410		-0.00040106		 0.00109375		 0.00041232	
O		6.30423872		12.61568117		7.40022993		 0.00036724		-0.00119013		-0.00049694	
O		2.91550738		5.35064776		7.39874932		 0.00055410		-0.00088236		-0.00016777	
O		3.24376855		9.22572875		0.68809187		-0.00030615		 0.00092993		 0.00034412	
O		6.30681090		12.61718393		4.73048591		 0.00006790		-0.00127463		 0.00052622	
O		-0.15673017		1.93114280		3.35563833		-0.00007168		 0.00124808		-0.00072861	
O		3.24294326		9.22635036		3.35687819		-0.00012913		 0.00098030		-0.00002578	
O		2.91544335		5.35022019		4.73355740		 0.00048019		-0.00090263		-0.00001600	
