# total energy = -18389.8636784 eV	

CRYSTAL	
PRIMVEC	
		5.15777476		-0.00050076		0.00000000	
		0.00082336		9.05619597		0.00001444	
		0.00000481		0.00000481		6.74957035	
PRIMCOORD
   28 1	
Mg		-0.00012904		0.00001011		0.00001685		-0.00000949		-0.00001097		 0.00000061	
Mg		2.57939440		4.52770508		-0.00004478		 0.00001148		 0.00000555		 0.00000955	
Mg		-0.00012904		0.00001541		3.37476447		-0.00001115		-0.00001077		-0.00000155	
Mg		2.57939874		4.52771134		3.37484055		 0.00001268		 0.00000364		-0.00000742	
Ca		5.04587417		3.21172424		1.68739981		-0.00023672		-0.00023751		-0.00000295	
Ca		0.11282411		5.84350632		5.06218209		 0.00021989		 0.00022114		 0.00000322	
Ca		2.46683415		1.31505588		5.06217680		-0.00024016		 0.00023406		 0.00000349	
Ca		2.69184054		7.73988001		1.68740511		 0.00023347		-0.00022214		-0.00000411	
Si		2.42485169		1.63630448		1.68741329		-0.00037050		 0.00011318		-0.00004790	
Si		2.73338435		7.41941578		5.06216668		 0.00039971		-0.00010067		 0.00005361	
Si		5.00420613		2.89104045		5.06217391		-0.00044678		-0.00010993		 0.00002271	
Si		0.15485521		6.16459651		1.68741040		 0.00019672		 0.00012624		-0.00002668	
O		3.97909220		1.09160041		1.68739403		 0.00022595		-0.00007802		-0.00001812	
O		1.17899169		7.96386224		5.06218980		-0.00020563		 0.00007326		 0.00001767	
O		1.40086110		3.43572525		5.06218402		 0.00025379		 0.00010930		 0.00001911	
O		3.75820023		5.61963484		1.68740029		-0.00014087		-0.00004253		-0.00001896	
O		2.27988697		3.28021906		1.68739596		 0.00025739		 0.00015581		-0.00001920	
O		2.87901595		5.77557823		5.06218643		-0.00028260		-0.00016314		 0.00001868	
O		-0.29945832		1.24774218		5.06217920		 0.00028490		-0.00016393		 0.00001882	
O		5.45775936		7.80798963		1.68740173		-0.00024645		 0.00015367		-0.00001844	
O		1.62557858		1.07313536		0.38756944		 0.00024465		-0.00032560		 0.00055304	
O		3.53231511		7.98319350		6.36197683		-0.00024228		 0.00031203		-0.00056185	
O		4.20529366		3.45484225		6.36198453		 0.00025224		 0.00033027		-0.00056834	
O		0.95394149		5.60122661		0.38763252		-0.00021003		-0.00034508		 0.00047465	
O		3.53230211		7.98318580		3.76241769		-0.00021217		 0.00033387		 0.00047019	
O		1.62558918		1.07314355		2.98720225		 0.00021760		-0.00034573		-0.00046668	
O		0.95393860		5.60123239		2.98715891		-0.00019595		-0.00035437		-0.00040994	
O		4.20529800		3.45484032		3.76238784		 0.00024028		 0.00033838		 0.00050678	
