# total energy = -18511.8046153 eV

CRYSTAL
PRIMVEC
		7.02599999		0.00000000		0.00000000
		0.00000000		6.22800096		-0.24912088
		-0.43440353		-0.16959359		4.23980456
PRIMECORD
   30 1
Mg		0.16677405		1.46575920		2.21873491		-0.00001364		 0.00013584		-0.00018136
Mg		6.42482381		4.59264888		1.77195017		 0.00001364		-0.00013584		 0.00018136
Mg		4.73063390		1.40148395		3.82561975		 0.00017768		-0.00003020		 0.00053147
Mg		1.86096467		4.65692413		0.16506393		-0.00017768		 0.00003020		-0.00053147
Mg		2.80620688		1.54987728		0.11579199		-0.00018286		 0.00040170		-0.00001220
Mg		3.78539099		4.50853079		3.87489169		 0.00018286		-0.00040170		 0.00001220
Si		0.00000000		0.00000000		0.00000000		0.00000000		0.00000000		0.00000000
Si		0.00000000		3.11399978		-0.12455974		0.00000000		0.00000000		0.00000000
Si		2.07748702		3.03233166		2.22803312		-0.00046327		-0.00074995		-0.00036348
Si		4.51411084		3.02607571		1.76265126		 0.00046327		 0.00074995		 0.00036348
Si		4.51411084		-0.06301268		1.88621471		 0.00089921		 0.00005639		 0.00021384
Si		2.07748702		6.12142076		2.10446967		-0.00089921		-0.00005639		-0.00021384
O		5.50377634		3.46393673		0.45406509		-0.00078609		-0.00026837		-0.00006364
O		1.08782223		2.59447134		3.53661930		 0.00078609		 0.00026837		 0.00006364
O		1.08782223		0.22783070		3.63128411		 0.00015077		 0.00018448		-0.00067774
O		5.50377634		5.83057668		0.35940027		-0.00015077		-0.00018448		 0.00067774
O		5.86321666		2.63546524		2.66721011		-0.00057382		-0.00052833		 0.00036787
O		0.72838120		3.42294283		1.32347427		 0.00057382		 0.00052833		-0.00036787
O		0.72838120		5.80203917		1.22831131		 0.00018318		 0.00016293		 0.00043502
O		5.86321666		0.25636890		2.76237377		-0.00018318		-0.00016293		-0.00043502
O		1.96359767		1.48424531		1.75659625		-0.00010844		 0.00028009		-0.00009772
O		4.62800090		4.57416277		2.23408813		 0.00010844		-0.00028009		 0.00009772
O		3.11234796		3.41532876		0.89201112		-0.00007152		 0.00015476		 0.00000351
O		3.47924990		2.64307932		3.09867326		 0.00007152		-0.00015476		-0.00000351
O		3.47924990		0.21415880		3.19583019		-0.00001254		 0.00016721		 0.00065606
O		3.11234796		5.84424927		0.79485419		 0.00001254		-0.00016721		-0.00065606
O		4.38877614		1.50391811		1.26477906		-0.00047152		-0.00009225		 0.00040590
O		2.20282173		4.55448997		2.72590602		 0.00047152		 0.00009225		-0.00040590
O		6.82103681		1.53732674		0.42953732		 0.00016752		 0.00044801		 0.00013806
O		-0.22943895		4.52108134		3.56114706		-0.00016752		-0.00044801		-0.00013806
