# total energy = -18492.2822876 eV

CRYSTAL
PRIMVEC
		7.02599999		0.00000000		0.00000000
		0.00000000		6.22800096		-0.99647650
		-0.43440353		-0.67836732		4.23980456
PRIMECORD
   30 1
Mg		0.16677405		1.19203818		2.03189531		 0.00006696		 0.00047029		 0.00026427
Mg		6.42482381		4.35759405		1.21142994		-0.00006696		-0.00047029		-0.00026427
Mg		4.73063390		0.93493577		3.63878015		 0.00016804		-0.00058731		 0.00060595
Mg		1.86096467		4.61469576		-0.39545630		-0.00016804		 0.00058731		-0.00060595
Mg		2.80620688		1.52850911		-0.07104832		-0.00006457		 0.00025456		-0.00067974
Mg		3.78539099		4.02112312		3.31437216		 0.00006457		-0.00025456		 0.00067974
Si		0.00000000		0.00000000		0.00000000		0.00000000		0.00000000		0.00000000
Si		0.00000000		3.11399978		-0.49823966		0.00000000		0.00000000		0.00000000
Si		2.07748702		2.74996094		1.85285807		 0.00041358		 0.00022961		-0.00028070
Si		4.51411084		2.79966989		1.39046577		-0.00041358		-0.00022961		 0.00028070
Si		4.51411084		-0.28941780		1.88472028		 0.00011563		 0.00014790		 0.00063091
Si		2.07748702		5.83905003		1.35860427		-0.00011563		-0.00014790		-0.00063091
O		5.50377634		3.39270785		0.03554383		-0.00048835		 0.00001513		 0.00059387
O		1.08782223		2.15692298		3.20778001		 0.00048835		-0.00001513		-0.00059387
O		1.08782223		-0.20971697		3.58644277		-0.00004161		-0.00068577		 0.00006366
O		5.50377634		5.75934920		-0.34311892		 0.00004161		 0.00068577		-0.00006366
O		5.86321666		2.30221714		2.33762397		-0.00049151		-0.00000277		 0.00012931
O		0.72838120		3.24741509		0.90569988		 0.00049151		 0.00000277		-0.00012931
O		0.72838120		5.62651072		0.52504525		-0.00058785		-0.00052032		-0.00038533
O		5.86321666		-0.07687990		2.71827930		 0.00058785		 0.00052032		 0.00038533
O		1.96359767		1.26597981		1.56975594		 0.00027868		 0.00021853		-0.00011396
O		4.62800090		4.28365172		1.67356790		-0.00027868		-0.00021853		 0.00011396
O		3.11234796		3.29169715		0.47722629		-0.00036369		 0.00027600		-0.00006739
O		3.47924990		2.25793508		2.76609825		 0.00036369		-0.00027600		 0.00006739
O		3.47924990		-0.17098474		3.15472528		 0.00017296		 0.00041001		-0.00026564
O		3.11234796		5.72061697		0.08859927		-0.00017296		-0.00041001		 0.00026564
O		4.38877614		1.34467101		1.07793875		-0.00084889		 0.00027170		-0.00051984
O		2.20282173		4.20496122		2.16538579		 0.00084889		-0.00027170		 0.00051984
O		6.82103681		1.47830904		0.24269701		 0.00022479		-0.00033916		 0.00000913
O		-0.22943895		4.07132178		3.00062684		-0.00022479		 0.00033916		-0.00000913
