# total energy = -18511.804228 eV

CRYSTAL
PRIMVEC
		7.02599999		0.00000000		0.00000000
		0.00000000		6.22800096		0.24912088
		-0.43440353		0.16959359		4.23980456
PRIMECORD
   30 1
Mg		0.16677405		1.64824128		2.34329465		-0.00000674		-0.00013260		-0.00017455
Mg		6.42482381		4.74935186		2.14563009		 0.00000674		 0.00013260		 0.00017455
Mg		4.73063390		1.71251583		3.95018020		 0.00019746		 0.00005825		 0.00055270
Mg		1.86096467		4.68507591		0.53874384		-0.00019746		-0.00005825		-0.00055270
Mg		2.80620688		1.56412320		0.24035173		-0.00016549		-0.00044431		-0.00001947
Mg		3.78539099		4.83346924		4.24857231		 0.00016549		 0.00044431		 0.00001947
Si		0.00000000		0.00000000		0.00000000		0.00000000		0.00000000		0.00000000
Si		0.00000000		3.11399978		0.12455974		0.00000000		0.00000000		0.00000000
Si		2.07748702		3.22057998		2.47815029		-0.00088235		 0.00005741		-0.00019080
Si		4.51411084		3.17701316		2.01077515		 0.00088235		-0.00005741		 0.00019080
Si		4.51411084		0.08792407		1.88721100		 0.00048152		-0.00074345		 0.00038205
Si		2.07748702		6.30966767		2.60171304		-0.00048152		 0.00074345		-0.00038205
O		5.50377634		3.51142266		0.73308019		-0.00017402		 0.00017804		 0.00064562
O		1.08782223		2.88616908		3.75584385		 0.00017402		-0.00017804		-0.00064562
O		1.08782223		0.51952914		3.66117904		 0.00079100		-0.00027923		 0.00006279
O		5.50377634		5.87806330		0.82774500		-0.00079100		 0.00027923		-0.00006279
O		5.86321666		2.85763087		2.88693421		-0.00018533		 0.00019765		-0.00045118
O		0.72838120		3.53996086		1.60199123		 0.00018533		-0.00019765		 0.00045118
O		0.72838120		5.91905720		1.69715419		 0.00056191		-0.00056317		-0.00037066
O		5.86321666		0.47853524		2.79176985		-0.00056191		 0.00056317		 0.00037066
O		1.96359767		1.62975517		1.88115599		-0.00010841		-0.00030252		-0.00009416
O		4.62800090		4.76783727		2.60776805		 0.00010841		 0.00030252		 0.00009416
O		3.11234796		3.49775076		1.16853411		 0.00000453		 0.00014503		-0.00066321
O		3.47924990		2.89984097		3.32038993		-0.00000453		-0.00014503		 0.00066321
O		3.47924990		0.47092116		3.22323300		 0.00008176		 0.00019047		-0.00000570
O		3.11234796		5.92667128		1.26569104		-0.00008176		-0.00019047		 0.00000570
O		4.38877614		1.61008167		1.38933880		-0.00047466		 0.00008018		 0.00040466
O		2.20282173		4.78751007		3.09958594		 0.00047466		-0.00008018		-0.00040466
O		6.82103681		1.57667304		0.55409706		 0.00018208		-0.00043690		 0.00013970
O		-0.22943895		4.82092010		3.93482698		-0.00018208		 0.00043690		-0.00013970
