# total energy = -18508.0831775 eV

CRYSTAL
PRIMVEC
		7.02599999		0.00000000		0.00000000
		0.00000000		6.22800096		0.49824176
		-0.43440353		0.33918718		4.23980456
PRIMECORD
   30 1
Mg		0.16677405		1.73948092		2.40557522		 0.00002604		-0.00007417		-0.00006178
Mg		6.42482381		4.82770300		2.33246969		-0.00002604		 0.00007417		 0.00006178
Mg		4.73063390		1.86803213		4.01246006		-0.00030236		 0.00064793		 0.00070461
Mg		1.86096467		4.69915179		0.72558415		 0.00030236		-0.00064793		-0.00070461
Mg		2.80620688		1.57124616		0.30263230		-0.00013510		-0.00023271		-0.00008544
Mg		3.78539099		4.99593917		4.43541191		 0.00013510		 0.00023271		 0.00008544
Si		0.00000000		0.00000000		0.00000000		0.00000000		0.00000000		0.00000000
Si		0.00000000		3.11399978		0.24912018		0.00000000		0.00000000		0.00000000
Si		2.07748702		3.31470309		2.60320817		-0.00020284		 0.00009728		-0.00015207
Si		4.51411084		3.25248083		2.13483604		 0.00020284		-0.00009728		 0.00015207
Si		4.51411084		0.16339314		1.88770914		 0.00029355		-0.00007322		 0.00039608
Si		2.07748702		6.40379218		2.85033508		-0.00029355		 0.00007322		-0.00039608
O		5.50377634		3.53516632		0.87258704		-0.00031453		-0.00008543		-0.00009228
O		1.08782223		3.03201900		3.86545717		 0.00031453		 0.00008543		 0.00009228
O		1.08782223		0.66537906		3.67612615		-0.00026245		-0.00044968		-0.00039560
O		5.50377634		5.90180626		1.06191807		 0.00026245		 0.00044968		 0.00039560
O		5.86321666		2.96871404		2.99679486		-0.00034175		 0.00017975		 0.00003813
O		0.72838120		3.59847128		1.74124866		 0.00034175		-0.00017975		-0.00003813
O		0.72838120		5.97756692		1.93157597		 0.00023577		-0.00013536		-0.00007464
O		5.86321666		0.58961770		2.80646825		-0.00023577		 0.00013536		 0.00007464
O		1.96359767		1.70251010		1.94343586		-0.00001995		-0.00029661		-0.00018105
O		4.62800090		4.86467381		2.79460765		 0.00001995		 0.00029661		 0.00018105
O		3.11234796		3.53896177		1.30679595		 0.00012185		 0.00030610		 0.00029634
O		3.47924990		3.02822286		3.43124827		-0.00012185		-0.00030610		-0.00029634
O		3.47924990		0.59930304		3.23693510		-0.00022674		-0.00000179		 0.00035207
O		3.11234796		5.96788228		1.50110911		 0.00022674		 0.00000179		-0.00035207
O		4.38877614		1.66316521		1.45161867		-0.00019152		 0.00004085		 0.00041247
O		2.20282173		4.90402012		3.28642625		 0.00019152		-0.00004085		-0.00041247
O		6.82103681		1.59634514		0.61637693		 0.00024853		 0.00037504		-0.00024266
O		-0.22943895		4.97083878		4.12166729		-0.00024853		-0.00037504		 0.00024266
