# total energy = -18508.0826627 eV

CRYSTAL
PRIMVEC
		7.02599999		0.00000000		0.00000000
		0.00000000		6.22800096		-0.49824176
		-0.43440353		-0.33918718		4.23980456
PRIMECORD
   30 1
Mg		0.16677405		1.37451886		2.15645505		 0.00001916		 0.00005615		-0.00005077
Mg		6.42482381		4.51429703		1.58510986		-0.00001916		-0.00005615		 0.00005077
Mg		4.73063390		1.24596765		3.76333989		-0.00029603		-0.00063317		 0.00070312
Mg		1.86096467		4.64284824		-0.02177568		 0.00029603		 0.00063317		-0.00070312
Mg		2.80620688		1.54275432		0.05351212		-0.00013507		 0.00023806		-0.00004570
Mg		3.78539099		4.34606227		3.68805208		 0.00013507		-0.00023806		 0.00004570
Si		0.00000000		0.00000000		0.00000000		0.00000000		0.00000000		0.00000000
Si		0.00000000		3.11399978		-0.24912018		0.00000000		0.00000000		0.00000000
Si		2.07748702		2.93820926		2.10297524		-0.00031214		-0.00005452		-0.00038324
Si		4.51411084		2.95060734		1.63858896		 0.00031214		 0.00005452		 0.00038324
Si		4.51411084		-0.13848105		1.88571587		 0.00020096		 0.00010317		 0.00014986
Si		2.07748702		6.02729695		1.85584834		-0.00020096		-0.00010317		-0.00014986
O		5.50377634		3.44019377		0.31455824		 0.00025287		-0.00043344		 0.00037496
O		1.08782223		2.44862212		3.42700597		-0.00025287		 0.00043344		-0.00037496
O		1.08782223		0.08198077		3.61633700		 0.00031585		-0.00009170		 0.00010150
O		5.50377634		5.80683371		0.12522721		-0.00031585		 0.00009170		-0.00010150
O		5.86321666		2.52438207		2.55734807		-0.00023149		-0.00014242		 0.00006756
O		0.72838120		3.36443382		1.18421614		 0.00023149		 0.00014242		-0.00006756
O		0.72838120		5.74352875		0.99388882		 0.00036504		 0.00019197		-0.00005033
O		5.86321666		0.14528574		2.74767468		-0.00036504		-0.00019197		 0.00005033
O		1.96359767		1.41148967		1.69431568		-0.00003220		 0.00027101		-0.00015593
O		4.62800090		4.47732622		2.04724782		 0.00003220		-0.00027101		 0.00015593
O		3.11234796		3.37411775		0.75374928		 0.00022466		-0.00000728		-0.00035042
O		3.47924990		2.51469673		2.98781493		-0.00022466		 0.00000728		 0.00035042
O		3.47924990		0.08577833		3.18212809		-0.00010616		 0.00029367		-0.00028010
O		3.11234796		5.80303827		0.55943612		 0.00010616		-0.00029367		 0.00028010
O		4.38877614		1.45083527		1.20249920		-0.00019373		-0.00002102		 0.00042942
O		2.20282173		4.43797992		2.53906571		 0.00019373		 0.00002102		-0.00042942
O		6.82103681		1.51765534		0.36725675		 0.00025686		-0.00038065		-0.00022595
O		-0.22943895		4.37116125		3.37430675		-0.00025686		 0.00038065		 0.00022595
