# total energy = -18501.6217489 eV

CRYSTAL
PRIMVEC
		7.02599999		0.00000000		0.00000000
		0.00000000		6.22800096		0.74736264
		-0.43440353		0.50877374		4.23980456
PRIMECORD
   30 1
Mg		0.16677405		1.83072196		2.46785509		 0.00020971		 0.00006491		 0.00001849
Mg		6.42482381		4.90605485		2.51931000		-0.00020971		-0.00006491		-0.00001849
Mg		4.73063390		2.02354772		4.07473993		-0.00032664		 0.00077605		 0.00094177
Mg		1.86096467		4.71322909		0.91242376		 0.00032664		-0.00077605		-0.00094177
Mg		2.80620688		1.57836912		0.36491217		-0.00023016		-0.00018960		-0.00035831
Mg		3.78539099		5.15840769		4.62225222		 0.00023016		 0.00018960		 0.00035831
Si		0.00000000		0.00000000		0.00000000		0.00000000		0.00000000		0.00000000
Si		0.00000000		3.11399978		0.37367992		0.00000000		0.00000000		0.00000000
Si		2.07748702		3.40882690		2.72826605		-0.00045721		-0.00007065		-0.00020267
Si		4.51411084		3.32794991		2.25889834		 0.00045721		 0.00007065		 0.00020267
Si		4.51411084		0.23886081		1.88820799		-0.00049175		 0.00078908		 0.00033947
Si		2.07748702		6.49791529		3.09895711		 0.00049175		-0.00078908		-0.00033947
O		5.50377634		3.55890928		1.01209389		-0.00048316		-0.00071250		-0.00049081
O		1.08782223		3.17786823		3.97506980		 0.00048316		 0.00071250		 0.00049081
O		1.08782223		0.81122828		3.69107326		-0.00076452		-0.00055783		-0.00057119
O		5.50377634		5.92554923		1.29609114		 0.00076452		 0.00055783		 0.00057119
O		5.86321666		3.07979721		3.10665690		-0.00015555		 0.00044131		-0.00019613
O		0.72838120		3.65698030		1.88050679		 0.00015555		-0.00044131		 0.00019613
O		0.72838120		6.03607593		2.16599776		 0.00023949		 0.00003349		-0.00028256
O		5.86321666		0.70070087		2.82116593		-0.00023949		-0.00003349		 0.00028256
O		1.96359767		1.77526504		2.00571573		 0.00023179		 0.00002940		-0.00041707
O		4.62800090		4.96151106		2.98144796		-0.00023179		-0.00002940		 0.00041707
O		3.11234796		3.58017277		1.44505709		 0.00041033		 0.00076178		 0.00013976
O		3.47924990		3.15660404		3.54210731		-0.00041033		-0.00076178		-0.00013976
O		3.47924990		0.72768422		3.25063580		-0.00035635		-0.00000669		 0.00027615
O		3.11234796		6.00909328		1.73652789		 0.00035635		 0.00000669		-0.00027615
O		4.38877614		1.71624734		1.51389924		-0.00014009		-0.00001497		 0.00006173
O		2.20282173		5.02053017		3.47326586		 0.00014009		 0.00001497		-0.00006173
O		6.82103681		1.61601794		0.67865680		 0.00023766		-0.00020056		 0.00005043
O		-0.22943895		5.12075887		4.30850690		-0.00023766		 0.00020056		-0.00005043
