# total energy = -24705.5404616 eV

CRYSTAL
PRIMVEC
		9.61326956		0.00000000		0.00000000
		0.00000000		8.82246278		1.41159328
		-1.62743040		0.78591363		4.91196737
PRIMECORD
   40 1
Mg		2.03778627		5.93647466		1.99658284		-0.00063743		 0.00004964		-0.00015102
Mg		5.94805577		3.67189982		4.32697973		 0.00063743		-0.00004964		 0.00015102
Mg		6.76177001		1.57444302		1.59827624		 0.00014489		 0.00002688		 0.00020179
Mg		1.22407203		8.03393146		4.72528825		-0.00014489		-0.00002688		-0.00020179
Mg		2.11556628		0.27635170		1.07708322		 0.00005624		 0.00063482		 0.00004332
Mg		5.87027576		9.33202278		5.24647935		-0.00005624		-0.00063482		-0.00004332
Mg		6.68399000		4.74133857		2.11885882		-0.00020223		-0.00052327		-0.00036817
Mg		1.30185204		4.86703591		4.20470375		 0.00020223		 0.00052327		 0.00036817
Si		-0.04067759		3.23023161		1.94265336		-0.00019169		 0.00026623		-0.00003606
Si		8.02651963		6.37814383		4.38091114		 0.00019169		-0.00026623		 0.00003606
Si		8.84023387		7.56617091		2.17788333		-0.00005654		-0.00042818		 0.00007890
Si		-0.85439087		2.04220357		4.14568020		 0.00005654		 0.00042818		-0.00007890
Si		4.94609063		7.56834832		2.29357999		 0.00019236		-0.00019108		-0.00002892
Si		3.03975044		2.04002616		4.02998354		-0.00019236		 0.00019108		 0.00002892
Si		3.85346468		3.19452793		1.82159249		-0.00002971		 0.00014908		 0.00032398
Si		4.13237736		6.41384655		4.50197104		 0.00002971		-0.00014908		-0.00032398
O		8.04909831		3.15525003		1.40417087		 0.00032548		 0.00045058		 0.00030570
O		-0.06325724		6.45312445		4.91939170		-0.00032548		-0.00045058		-0.00030570
O		0.75045700		7.66409071		2.72003521		-0.00052856		-0.00000584		 0.00044204
O		7.23538503		1.94428377		3.60352929		 0.00052856		 0.00000584		-0.00044204
O		0.68054066		4.66864495		2.28240361		 0.00012558		 0.00022933		 0.00049399
O		7.30530042		4.93972953		4.04115992		-0.00012558		-0.00022933		-0.00049399
O		8.11901466		0.14612939		0.88107154		 0.00036490		-0.00017410		-0.00010078
O		-0.13317262		9.46224509		5.44249200		-0.00036490		 0.00017410		 0.00010078
O		0.00731378		2.96024774		3.40376555		 0.00023688		 0.00056067		 0.00032465
O		7.97852730		6.64812674		2.91979799		-0.00023688		-0.00056067		-0.00032465
O		7.16481402		7.58807667		5.46330088		 0.00013972		-0.00068678		-0.00011032
O		0.82102802		2.02029877		0.86026169		-0.00013972		 0.00068678		 0.00011032
O		3.39361874		7.49301489		1.81199749		 0.00025725		-0.00018331		-0.00011078
O		4.59222234		2.11535959		4.51156604		-0.00025725		 0.00018331		 0.00011078
O		5.40593658		3.27339038		2.30373930		-0.00015501		 0.00035327		 0.00006655
O		2.57990450		6.33498410		4.01982423		 0.00015501		-0.00035327		-0.00006655
O		5.47592118		8.92751563		3.33619099		 0.00046653		-0.00005281		-0.00015038
O		2.50992086		0.68085886		2.98737158		-0.00046653		 0.00005281		 0.00015038
O		3.32363510		4.28271159		1.17055688		 0.00054034		-0.00016468		 0.00005218
O		4.66220790		5.32566289		5.15300569		-0.00054034		 0.00016468		-0.00005218
O		5.07876145		6.48393594		3.18309390		 0.00069391		 0.00050593		 0.00040981
O		2.90707963		3.12443950		3.14046963		-0.00069391		-0.00050593		-0.00040981
O		3.72079387		1.76101063		0.52920953		-0.00011836		 0.00085356		-0.00019991
O		4.26504817		7.84736385		5.79435400		 0.00011836		-0.00085356		 0.00019991
