# total energy = -24716.1476487 eV

CRYSTAL
PRIMVEC
		9.61326956		0.00000000		0.00000000
		0.00000000		8.82246278		0.35289351
		-1.62743040		0.19647600		4.91196737
PRIMECORD
   40 1
Mg		2.03778627		5.80756456		1.30483215		-0.00050293		 0.00054101		 0.00022696
Mg		5.94805577		3.21137422		3.96003643		 0.00050293		-0.00054101		-0.00022696
Mg		6.76177001		1.40863527		1.43587159		-0.00004546		 0.00027770		 0.00000679
Mg		1.22407203		7.61030351		3.82899603		 0.00004546		-0.00027770		-0.00000679
Mg		2.11556628		0.14915180		1.06427258		-0.00041251		 0.00032885		-0.00070979
Mg		5.87027576		8.86978698		4.20059504		 0.00041251		-0.00032885		 0.00070979
Mg		6.68399000		4.57382062		1.57670118		 0.00003384		-0.00000603		 0.00030150
Mg		1.30185204		4.44511816		3.68816643		-0.00003384		 0.00000603		-0.00030150
Si		-0.04067759		3.05463755		1.58311996		-0.00085521		 0.00009370		 0.00042365
Si		8.02651963		5.96430027		3.68174765		 0.00085521		-0.00009370		-0.00042365
Si		8.84023387		7.44704520		1.28900294		-0.00026557		-0.00000215		 0.00014026
Si		-0.85439087		1.57189262		3.97586468		 0.00026557		 0.00000215		-0.00014026
Si		4.94609063		7.43501803		1.40671070		-0.00001344		-0.00039218		-0.00013580
Si		3.03975044		1.58391978		3.85815788		 0.00001344		 0.00039218		 0.00013580
Si		3.85346468		3.03314132		1.46407115		 0.00006391		 0.00091415		-0.00008133
Si		4.13237736		5.98579746		3.80079646		-0.00006391		-0.00091415		 0.00008133
O		8.04909831		3.04449459		1.04326181		-0.00072668		 0.00013953		 0.00033364
O		-0.06325724		5.97444419		4.22160580		 0.00072668		-0.00013953		-0.00033364
O		0.75045700		7.48012734		1.82977819		 0.00004241		-0.00027731		-0.00000029
O		7.23538503		1.53881048		3.43508942		-0.00004241		 0.00027731		 0.00000029
O		0.68054066		4.47955386		1.75242117		 0.00045019		 0.00053800		-0.00005331
O		7.30530042		4.53938492		3.51244644		-0.00045019		-0.00053800		 0.00005331
O		8.11901466		0.04050167		0.88043706		-0.00067776		 0.00044160		-0.00001755
O		-0.13317262		8.97843615		4.38443152		 0.00067776		-0.00044160		 0.00001755
O		0.00731378		2.59939540		3.10627138		 0.00034187		 0.00047205		 0.00036497
O		7.97852730		6.41954242		2.15859623		-0.00034187		-0.00047205		-0.00036497
O		7.16481402		7.06477449		4.63645972		-0.00018704		 0.00011403		-0.00057237
O		0.82102802		1.95416429		0.62840790		 0.00018704		-0.00011403		 0.00057237
O		3.39361874		7.41750746		0.92491670		-0.00034168		 0.00035686		 0.00033225
O		4.59222234		1.60143132		4.33995092		 0.00034168		-0.00035686		-0.00033225
O		5.40593658		3.05417996		1.94600550		 0.00085988		-0.00029465		 0.00001346
O		2.57990450		5.96475882		3.31886211		-0.00085988		 0.00029465		-0.00001346
O		5.47592118		8.69256636		2.30248092		-0.00073392		-0.00010684		 0.00053492
O		2.50992086		0.32637242		2.96238669		 0.00073392		 0.00010684		-0.00053492
O		3.32363510		4.22294301		0.66619381		 0.00046056		-0.00041407		 0.00021714
O		4.66220790		4.79599577		4.59867380		-0.00046056		 0.00041407		-0.00021714
O		5.07876145		6.21969119		2.44730002		 0.00011224		-0.00015049		-0.00066160
O		2.90707963		2.79924759		2.81756759		-0.00011224		 0.00015049		 0.00066160
O		3.72079387		1.73053753		0.32276360		-0.00088331		 0.00002051		 0.00015033
O		4.26504817		7.28840029		4.94210401		 0.00088331		-0.00002051		-0.00015033
