# total energy = -12280.7699121 eV	

CRYSTAL	
PRIMVEC	
		3.22157470		0.00000000		0.00000000	
		-1.61078735		2.72191813		0.00000000	
		0.00000000		0.00000000		22.77199716	
PRIMCOORD
   22 1	
O		0.00000000		1.81461187		15.30961368		0.00000000		-0.00019711		 0.00004151	
O		1.61078671		0.90730594		7.46238444		0.00000000		 0.00019711		-0.00004151	
O		1.61078671		0.90730594		17.52077434		0.00000000		 0.00017682		 0.00001769	
O		0.00000000		1.81461187		5.25122250		0.00000000		-0.00017682		-0.00001769	
O		0.00000000		1.81461187		10.28155708		0.00000000		-0.00017360		 0.00009567	
O		1.61078671		0.90730594		12.49044072		0.00000000		 0.00017360		-0.00009567	
O		0.00000000		1.81461187		20.41965002		0.00000000		 0.00004194		-0.00032884	
O		1.61078671		0.90730594		2.35234681		0.00000000		-0.00004194		 0.00032884	
O		0.00000000		0.00000000		0.00000000		0.00000000		0.00000000		0.00000000	
H		0.00000000		1.81461187		14.32130866		-0.00000000		 0.00001477		-0.00031515	
H		1.61078671		0.90730594		8.45068817		-0.00000000		-0.00001477		 0.00031515	
H		0.00000000		1.81461187		9.29097505		0.00000000		 0.00001475		-0.00011722	
H		1.61078671		0.90730594		13.48102276		0.00000000		-0.00001475		 0.00011722	
H		0.00000000		1.81461187		19.42906832		-0.00000000		 0.00028223		 0.00003009	
H		1.61078671		0.90730594		3.34292884		-0.00000000		-0.00028223		-0.00003009	
H		1.61078671		0.90730594		18.51135637		0.00000000		 0.00004874		-0.00048962	
H		0.00000000		1.81461187		4.26064046		0.00000000		-0.00004874		 0.00048962	
Mg		0.00000000		0.00000000		16.41633252		-0.00000000		 0.00001306		-0.00019210	
Mg		0.00000000		0.00000000		6.35566432		-0.00000000		-0.00001306		 0.00019210	
Mg		1.61078671		0.90730594		21.53547786		0.00000000		 0.00036720		-0.00000897	
Mg		0.00000000		1.81461187		1.23651994		0.00000000		-0.00036720		 0.00000897	
Mg		0.00000000		0.00000000		11.38599890		0.00000000		0.00000000		0.00000000	
