# total energy = -12280.6798999 eV	

CRYSTAL	
PRIMVEC	
		2.98585007		0.00000000		0.00000000	
		-1.49292504		2.72191884		0.00000000	
		0.00000000		0.00000000		22.77200060	
PRIMCOORD
   22 1	
O		0.00000000		1.81461216		15.30961541		0.00000000		 0.00041144		-0.00063768	
O		1.49292504		0.90730608		7.46238519		0.00000000		-0.00041144		 0.00063768	
O		1.49292504		0.90730608		17.52077653		0.00000000		-0.00031711		-0.00037319	
O		0.00000000		1.81461216		5.25122318		0.00000000		 0.00031711		 0.00037319	
O		0.00000000		1.81461216		10.28155825		0.00000000		 0.00034701		-0.00056028	
O		1.49292504		0.90730608		12.49044236		0.00000000		-0.00034701		 0.00056028	
O		0.00000000		1.81461216		20.41965237		0.00000000		 0.00034922		 0.00078049	
O		1.49292504		0.90730608		2.35234704		0.00000000		-0.00034922		-0.00078049	
O		0.00000000		0.00000000		0.00000000		0.00000000		0.00000000		0.00000000	
H		0.00000000		1.81461216		14.32131038		0.00000000		-0.00002701		 0.00032983	
H		1.49292504		0.90730608		8.45068932		0.00000000		 0.00002701		-0.00032983	
H		0.00000000		1.81461216		9.29097621		0.00000000		-0.00002912		 0.00040412	
H		1.49292504		0.90730608		13.48102439		0.00000000		 0.00002912		-0.00040412	
H		0.00000000		1.81461216		19.42907033		0.00000000		-0.00035416		-0.00052408	
H		1.49292504		0.90730608		3.34292908		0.00000000		 0.00035416		 0.00052408	
H		1.49292504		0.90730608		18.51135856		0.00000000		-0.00019988		 0.00014971	
H		0.00000000		1.81461216		4.26064114		0.00000000		 0.00019988		-0.00014971	
Mg		0.00000000		0.00000000		16.41633447		0.00000000		 0.00001398		-0.00000935	
Mg		0.00000000		0.00000000		6.35566523		0.00000000		-0.00001398		 0.00000935	
Mg		1.49292504		0.90730608		21.53548036		0.00000000		-0.00093234		-0.00026747	
Mg		0.00000000		1.81461216		1.23651994		0.00000000		 0.00093234		 0.00026747	
Mg		0.00000000		0.00000000		11.38600030		0.00000000		0.00000000		0.00000000	
