# total energy = -12279.9747669 eV	

CRYSTAL	
PRIMVEC	
		3.45729986		0.00000000		0.00000000	
		-1.72864993		2.72191835		0.00000000	
		0.00000000		0.00000000		22.77199646	
PRIMCOORD
   22 1	
O		0.00000000		1.81461189		15.30961455		0.00000000		 0.00028210		-0.00071696	
O		1.72864993		0.90730612		7.46238468		0.00000000		-0.00028210		 0.00071696	
O		1.72864993		0.90730612		17.52077527		0.00000000		-0.00015770		-0.00037742	
O		0.00000000		1.81461189		5.25122292		0.00000000		 0.00015770		 0.00037742	
O		0.00000000		1.81461189		10.28155757		0.00000000		 0.00018599		-0.00029408	
O		1.72864993		0.90730612		12.49044166		0.00000000		-0.00018599		 0.00029408	
O		0.00000000		1.81461189		20.41965102		0.00000000		 0.00075816		-0.00027616	
O		1.72864993		0.90730612		2.35234682		0.00000000		-0.00075816		 0.00027616	
O		0.00000000		0.00000000		0.00000000		0.00000000		0.00000000		0.00000000	
H		0.00000000		1.81461189		14.32130943		0.00000000		-0.00002854		 0.00009480	
H		1.72864993		0.90730612		8.45068876		0.00000000		 0.00002854		-0.00009480	
H		0.00000000		1.81461189		9.29097547		0.00000000		-0.00004209		 0.00023055	
H		1.72864993		0.90730612		13.48102341		0.00000000		 0.00004209		-0.00023055	
H		0.00000000		1.81461189		19.42906927		0.00000000		 0.00091842		-0.00081802	
H		1.72864993		0.90730612		3.34292892		0.00000000		-0.00091842		 0.00081802	
H		1.72864993		0.90730612		18.51135737		0.00000000		 0.00024387		 0.00006701	
H		0.00000000		1.81461189		4.26064082		0.00000000		-0.00024387		-0.00006701	
Mg		0.00000000		0.00000000		16.41633323		0.00000000		-0.00006861		-0.00034484	
Mg		0.00000000		0.00000000		6.35566462		0.00000000		 0.00006861		 0.00034484	
Mg		1.72864993		0.90730612		21.53547899		0.00000000		-0.00020703		 0.00025013	
Mg		0.00000000		1.81461189		1.23651989		0.00000000		 0.00020703		-0.00025013	
Mg		0.00000000		0.00000000		11.38599961		0.00000000		0.00000000		0.00000000	
