# total energy = -12280.5806986 eV	

CRYSTAL	
PRIMVEC	
		3.30015011		0.00000000		0.00000000	
		-1.65007505		2.72191761		0.00000000	
		0.00000000		0.00000000		22.77199938	
PRIMCOORD
   22 1	
O		0.00000000		1.81461196		15.30961547		0.00000000		-0.00032898		 0.00009275	
O		1.65007505		0.90730598		7.46238522		0.00000000		 0.00032898		-0.00009275	
O		1.65007505		0.90730598		17.52077644		0.00000000		 0.00030032		-0.00011772	
O		0.00000000		1.81461196		5.25122327		0.00000000		-0.00030032		 0.00011772	
O		0.00000000		1.81461196		10.28155825		-0.00000000		-0.00028684		 0.00028458	
O		1.65007505		0.90730598		12.49044244		0.00000000		 0.00028684		-0.00028458	
O		0.00000000		1.81461196		20.41965271		-0.00000000		 0.00012647		-0.00040387	
O		1.65007505		0.90730598		2.35234700		0.00000000		-0.00012647		 0.00040387	
O		0.00000000		0.00000000		0.00000000		0.00000000		0.00000000		0.00000000	
H		0.00000000		1.81461196		14.32131061		0.00000000		 0.00002246		-0.00043163	
H		1.65007505		0.90730598		8.45068943		0.00000000		-0.00002246		 0.00043163	
H		0.00000000		1.81461196		9.29097629		0.00000000		 0.00001836		-0.00034176	
H		1.65007505		0.90730598		13.48102441		0.00000000		-0.00001836		 0.00034176	
H		0.00000000		1.81461196		19.42907075		0.00000000		 0.00058353		-0.00000473	
H		1.65007505		0.90730598		3.34292896		0.00000000		-0.00058353		 0.00000473	
H		1.65007505		0.90730598		18.51135873		0.00000000		 0.00009208		-0.00035400	
H		0.00000000		1.81461196		4.26064097		0.00000000		-0.00009208		 0.00035400	
Mg		0.00000000		0.00000000		16.41633467		0.00000000		 0.00002684		-0.00024212	
Mg		0.00000000		0.00000000		6.35566537		0.00000000		-0.00002684		 0.00024212	
Mg		1.65007505		0.90730598		21.53548066		0.00000000		 0.00055458		 0.00005938	
Mg		0.00000000		1.81461196		1.23652004		0.00000000		-0.00055458		-0.00005938	
Mg		0.00000000		0.00000000		11.38600035		0.00000000		0.00000000		0.00000000	
