# total energy = -4139.3723009 eV	

CRYSTAL	
PRIMVEC	
		3.44117371		0.00000331		0.00000000	
		-1.72058520		2.98014095		0.00000000	
		0.00000000		0.00000000		4.13713214	
PRIMCOORD
   4 1	
Mg		0.00000000		1.98676151		-0.19764359		 0.00000009		 0.00000003		 0.00020459	
Mg		1.72058752		0.99338175		1.87092248		-0.00000008		 0.00000004		 0.00020510	
O		0.00000000		1.98676118		1.87152747		 0.00000001		 0.00000005		-0.00020511	
O		1.72058752		0.99338274		3.94009387		-0.00000003		-0.00000010		-0.00020458	
