# total energy = -4139.04176611 eV	

CRYSTAL	
PRIMVEC	
		3.39985945		0.00000000		0.00000000	
		-1.69992807		2.94436392		0.00000000	
		0.00000000		0.00000000		5.35546624	
PRIMCOORD
   4 1	
Mg		0.00000000		1.96290972		0.05047617		-0.00000002		 0.00000004		 0.00018926	
Mg		1.69992939		0.98145486		2.72821028		 0.00000002		-0.00000005		 0.00018960	
O		0.00000000		1.96290972		2.11634540		-0.00000003		 0.00000004		-0.00018957	
O		1.69992939		0.98145486		4.79407918		 0.00000002		-0.00000003		-0.00018928	
