# total energy = -8279.10090036 eV

CRYSTAL
PRIMVEC
		4.32822589		0.00000000		0.00000000
		0.00000000		4.32822589		0.00000000
		0.00000000		0.00000000		4.32822589
PRIMECORD
   8 1
Mg		0.00000000		0.00000000		0.00000000		 0.00000009		-0.00000028		 0.00000005
Mg		0.00000000		2.16411336		2.16411336		-0.00000012		-0.00000007		-0.00000009
Mg		2.16411336		0.00000000		2.16411294		-0.00000009		 0.00000020		 0.00000021
Mg		2.16411294		2.16411252		0.00000000		 0.00000004		 0.00000010		-0.00000000
O		2.16411294		2.16411252		2.16411379		 0.00000003		 0.00000008		-0.00000013
O		2.16411294		0.00000000		0.00000000		 0.00000005		-0.00000004		-0.00000002
O		0.00000000		2.16411379		0.00000000		 0.00000001		-0.00000028		 0.00000019
O		0.00000000		0.00000000		2.16411336		-0.00000001		 0.00000028		-0.00000020
