# total energy = -66803.8621909 eV	

CRYSTAL	
PRIMVEC	
		18.34339846		0.00000000		0.00000000	
		0.00000000		6.73129350		0.00000000	
		0.00000000		0.00000000		9.79596177	
PRIMCOORD
   112 1	
Ca		14.17192622		6.72409738		2.26854827		 0.00014916		-0.00005783		 0.00057479	
Ca		4.17147224		0.00720345		7.52741167		-0.00014916		 0.00005783		-0.00057479	
Ca		4.17147224		0.00720345		2.26854827		-0.00014916		 0.00005783		 0.00057479	
Ca		14.17192622		6.72409738		7.52741167		 0.00014916		-0.00005783		-0.00057479	
Ca		13.34317147		3.35844697		2.62943078		-0.00014916		-0.00005783		-0.00057479	
Ca		5.00022699		3.37285204		7.16652915		 0.00014916		 0.00005783		 0.00057479	
Ca		5.00022699		3.37285204		2.62943078		 0.00014916		 0.00005783		-0.00057479	
Ca		13.34317147		3.35844697		7.16652915		-0.00014916		-0.00005783		 0.00057479	
Ca		7.55546239		1.06468937		7.33364851		-0.00018134		-0.00029523		 0.00042302	
Ca		10.78793607		5.66660963		2.46231325		 0.00018134		 0.00029523		-0.00042302	
Ca		10.78793607		5.66660963		7.33364851		 0.00018134		 0.00029523		 0.00042302	
Ca		7.55546239		1.06468937		2.46231325		-0.00018134		-0.00029523		-0.00042302	
Ca		1.61623684		4.43033979		7.36029230		 0.00018134		-0.00029523		-0.00042302	
Ca		16.72716162		2.30095922		2.43566763		-0.00018134		 0.00029523		 0.00042302	
Ca		16.72716162		2.30095922		7.36029230		-0.00018134		 0.00029523		-0.00042302	
Ca		1.61623684		4.43033979		2.43566763		 0.00018134		-0.00029523		 0.00042302	
Ca		6.10413271		5.40388814		0.00000000		-0.00021215		-0.00028205		-0.00000000	
Ca		12.23926575		1.32741269		0.00000000		 0.00021215		 0.00028205		-0.00000000	
Ca		3.06756652		2.03823773		4.89797905		 0.00021215		-0.00028205		-0.00000000	
Ca		15.27583194		4.69306128		4.89797905		-0.00021215		 0.00028205		-0.00000000	
Ca		12.35024332		1.15643754		4.89797905		 0.00046055		-0.00029221		0.00000000	
Ca		5.99315515		5.57486146		4.89797905		-0.00046055		 0.00029221		0.00000000	
Ca		15.16485438		4.52208613		0.00000000		-0.00046055		-0.00029221		-0.00000000	
Ca		3.17854409		2.20921287		0.00000000		 0.00046055		 0.00029221		-0.00000000	
Ca		9.17169923		3.36565042		0.00000000		0.00000000		0.00000000		0.00000000	
Ca		0.00000000		0.00000000		4.89797905		0.00000000		0.00000000		0.00000000	
Ca		9.17169923		3.36565042		4.89797905		0.00000000		0.00000000		0.00000000	
Ca		0.00000000		0.00000000		0.00000000		0.00000000		0.00000000		0.00000000	
Si		7.68918577		4.84249761		7.36440673		-0.00003148		 0.00008864		-0.00001042	
Si		10.65421086		1.88880323		2.43155321		 0.00003148		-0.00008864		 0.00001042	
Si		10.65421086		1.88880323		7.36440673		 0.00003148		-0.00008864		-0.00001042	
Si		7.68918577		4.84249761		2.43155321		-0.00003148		 0.00008864		 0.00001042	
Si		1.48251346		1.47684719		7.32953409		 0.00003148		 0.00008864		 0.00001042	
Si		16.86088500		5.25445365		2.46642768		-0.00003148		-0.00008864		-0.00001042	
Si		16.86088500		5.25445365		7.32953409		-0.00003148		-0.00008864		 0.00001042	
Si		1.48251346		1.47684719		2.46642768		 0.00003148		 0.00008864		-0.00001042	
Si		12.17689820		4.95087040		4.89797905		 0.00007801		-0.00014227		0.00000000	
Si		6.16650026		1.78042860		4.89797905		-0.00007801		 0.00014227		0.00000000	
Si		15.33819949		1.58522182		0.00000000		-0.00007801		-0.00014227		0.00000000	
Si		3.00519897		5.14607902		0.00000000		 0.00007801		 0.00014227		0.00000000	
Si		6.20337049		1.90361186		0.00000000		-0.00044350		-0.00051717		0.00000000	
Si		12.14002797		4.82768898		0.00000000		 0.00044350		 0.00051717		0.00000000	
Si		2.96832874		5.26926044		4.89797905		 0.00044350		-0.00051717		0.00000000	
Si		15.37506972		1.46203856		4.89797905		-0.00044350		 0.00051717		0.00000000	
Mg		9.17169923		0.00000000		4.89797905		0.00000000		0.00000000		0.00000000	
Mg		0.00000000		3.36565042		0.00000000		0.00000000		0.00000000		0.00000000	
Mg		9.17169923		0.00000000		0.00000000		0.00000000		0.00000000		0.00000000	
Mg		0.00000000		3.36565042		4.89797905		0.00000000		0.00000000		0.00000000	
O		5.29573914		1.72994390		1.19510726		-0.00019161		-0.00053802		-0.00008084	
O		13.04765933		5.00135511		8.60085267		 0.00019161		 0.00053802		 0.00008084	
O		13.04765933		5.00135511		1.19510726		 0.00019161		 0.00053802		-0.00008084	
O		5.29573914		1.72994390		8.60085267		-0.00019161		-0.00053802		 0.00008084	
O		3.87596009		5.09559432		3.70287362		 0.00019161		-0.00053802		 0.00008084	
O		14.46743837		1.63570652		6.09308631		-0.00019161		 0.00053802		-0.00008084	
O		14.46743837		1.63570652		3.70287362		-0.00019161		 0.00053802		 0.00008084	
O		3.87596009		5.09559432		6.09308631		 0.00019161		-0.00053802		-0.00008084	
O		12.78168005		5.70410354		3.72540298		-0.00018588		 0.00071247		 0.00013999	
O		5.56171841		1.02719546		6.07055695		 0.00018588		-0.00071247		-0.00013999	
O		5.56171841		1.02719546		3.72540298		 0.00018588		-0.00071247		 0.00013999	
O		12.78168005		5.70410354		6.07055695		-0.00018588		 0.00071247		-0.00013999	
O		14.73341764		2.33845312		1.17257607		 0.00018588		 0.00071247		-0.00013999	
O		3.60998082		4.39284588		8.62338387		-0.00018588		-0.00071247		 0.00013999	
O		3.60998082		4.39284588		1.17257607		-0.00018588		-0.00071247		-0.00013999	
O		14.73341764		2.33845312		8.62338387		 0.00018588		 0.00071247		 0.00013999	
O		8.72595465		5.25647142		8.43040214		-0.00031411		 0.00063026		 0.00045897	
O		9.61744381		1.47482758		1.36555779		 0.00031411		-0.00063026		-0.00045897	
O		9.61744381		1.47482758		8.43040214		 0.00031411		-0.00063026		 0.00045897	
O		8.72595465		5.25647142		1.36555779		-0.00031411		 0.00063026		-0.00045897	
O		0.44574458		1.89082284		6.26353684		 0.00031411		 0.00063026		-0.00045897	
O		17.89765388		4.84047800		3.53242309		-0.00031411		-0.00063026		 0.00045897	
O		17.89765388		4.84047800		6.26353684		-0.00031411		-0.00063026		-0.00045897	
O		0.44574458		1.89082284		3.53242309		 0.00031411		 0.00063026		 0.00045897	
O		6.21712804		5.45302644		7.70158407		-0.00010329		-0.00005161		 0.00016461	
O		12.12627042		1.27827440		2.09437586		 0.00010329		 0.00005161		-0.00016461	
O		12.12627042		1.27827440		7.70158407		 0.00010329		 0.00005161		 0.00016461	
O		6.21712804		5.45302644		2.09437586		-0.00010329		-0.00005161		-0.00016461	
O		2.95457119		2.08737602		6.99235675		 0.00010329		-0.00005161		-0.00016461	
O		15.38882727		4.64392298		2.80360319		-0.00010329		 0.00005161		 0.00016461	
O		15.38882727		4.64392298		6.99235675		-0.00010329		 0.00005161		-0.00016461	
O		2.95457119		2.08737602		2.80360319		 0.00010329		-0.00005161		 0.00016461	
O		6.89711782		3.33805278		0.00000000		-0.00044852		-0.00033670		0.00000000	
O		11.44628064		3.39324806		0.00000000		 0.00044852		 0.00033670		0.00000000	
O		2.27458141		6.70370136		4.89797905		 0.00044852		-0.00033670		0.00000000	
O		16.06881705		0.02759764		4.89797905		-0.00044852		 0.00033670		0.00000000	
O		7.54830847		3.29497147		7.04427407		-0.00054202		 0.00020934		 0.00004945	
O		10.79508999		3.43632937		2.75168403		 0.00054202		-0.00020934		-0.00004945	
O		10.79508999		3.43632937		7.04427407		 0.00054202		-0.00020934		 0.00004945	
O		7.54830847		3.29497147		2.75168403		-0.00054202		 0.00020934		-0.00004945	
O		1.62339076		6.66062005		7.64966491		 0.00054202		 0.00020934		-0.00004945	
O		16.72000770		0.07067895		2.14629502		-0.00054202		-0.00020934		 0.00004945	
O		16.72000770		0.07067895		7.64966491		-0.00054202		-0.00020934		-0.00004945	
O		1.62339076		6.66062005		2.14629502		 0.00054202		 0.00020934		 0.00004945	
O		7.29700391		0.70342164		0.00000000		 0.00011245		 0.00009248		0.00000000	
O		11.04639455		6.02787920		0.00000000		-0.00011245		-0.00009248		0.00000000	
O		1.87469532		4.06907022		4.89797905		-0.00011245		 0.00009248		0.00000000	
O		16.46870314		2.66222878		4.89797905		 0.00011245		-0.00009248		0.00000000	
O		10.57313487		5.19521731		4.89797905		 0.00012403		 0.00028838		0.00000000	
O		7.77026359		1.53608352		4.89797905		-0.00012403		-0.00028838		0.00000000	
O		16.94196282		1.82956689		0.00000000		-0.00012403		 0.00028838		-0.00000000	
O		1.40143564		4.90173211		0.00000000		 0.00012403		-0.00028838		-0.00000000	
O		12.74132457		3.45046479		4.89797905		-0.00010904		 0.00024057		0.00000000	
O		5.60207389		3.28083605		4.89797905		 0.00010904		-0.00024057		0.00000000	
O		14.77377312		0.08481437		0.00000000		 0.00010904		 0.00024057		0.00000000	
O		3.56962534		6.64648463		0.00000000		-0.00010904		-0.00024057		0.00000000	
O		8.14997194		5.66102224		6.16753666		 0.00012998		-0.00036901		 0.00023523	
O		10.19342652		1.07027677		3.62842327		-0.00012998		 0.00036901		-0.00023523	
O		10.19342652		1.07027677		6.16753666		-0.00012998		 0.00036901		 0.00023523	
O		8.14997194		5.66102224		3.62842327		 0.00012998		-0.00036901		-0.00023523	
O		1.02172729		2.29537365		8.52640415		-0.00012998		-0.00036901		-0.00023523	
O		17.32167117		4.43592535		1.26955578		 0.00012998		 0.00036901		 0.00023523	
O		17.32167117		4.43592535		8.52640415		 0.00012998		 0.00036901		-0.00023523	
O		1.02172729		2.29537365		1.26955578		-0.00012998		-0.00036901		 0.00023523	
