# total energy = -66814.2212164 eV	

CRYSTAL	
PRIMVEC	
		18.34339846		0.00000000		0.00000000	
		0.00000000		6.73129350		0.00000000	
		0.00000000		0.00000000		11.42861595	
PRIMCOORD
   112 1	
Ca		14.17192622		6.72409738		2.64664056		 0.00012389		 0.00006737		 0.00047542	
Ca		4.17147224		0.00720345		8.78197906		-0.00012389		-0.00006737		-0.00047542	
Ca		4.17147224		0.00720345		2.64664056		-0.00012389		-0.00006737		 0.00047542	
Ca		14.17192622		6.72409738		8.78197906		 0.00012389		 0.00006737		-0.00047542	
Ca		13.34317147		3.35844697		3.06766925		-0.00012389		 0.00006737		-0.00047542	
Ca		5.00022699		3.37285204		8.36095037		 0.00012389		-0.00006737		 0.00047542	
Ca		5.00022699		3.37285204		3.06766925		 0.00012389		-0.00006737		-0.00047542	
Ca		13.34317147		3.35844697		8.36095037		-0.00012389		 0.00006737		 0.00047542	
Ca		7.55546239		1.06468937		8.55592235		-0.00026965		 0.00029748		 0.00031358	
Ca		10.78793607		5.66660963		2.87269727		 0.00026965		-0.00029748		-0.00031358	
Ca		10.78793607		5.66660963		8.55592235		 0.00026965		-0.00029748		 0.00031358	
Ca		7.55546239		1.06468937		2.87269727		-0.00026965		 0.00029748		-0.00031358	
Ca		1.61623684		4.43033979		8.58700707		 0.00026965		 0.00029748		-0.00031358	
Ca		16.72716162		2.30095922		2.84161254		-0.00026965		-0.00029748		 0.00031358	
Ca		16.72716162		2.30095922		8.58700707		-0.00026965		-0.00029748		-0.00031358	
Ca		1.61623684		4.43033979		2.84161254		 0.00026965		 0.00029748		 0.00031358	
Ca		6.10413271		5.40388814		0.00000000		 0.00006450		-0.00029312		0.00000000	
Ca		12.23926575		1.32741269		0.00000000		-0.00006450		 0.00029312		0.00000000	
Ca		3.06756652		2.03823773		5.71430981		-0.00006450		-0.00029312		-0.00000000	
Ca		15.27583194		4.69306128		5.71430981		 0.00006450		 0.00029312		-0.00000000	
Ca		12.35024332		1.15643754		5.71430981		-0.00041733		-0.00019171		0.00000000	
Ca		5.99315515		5.57486146		5.71430981		 0.00041733		 0.00019171		0.00000000	
Ca		15.16485438		4.52208613		0.00000000		 0.00041733		-0.00019171		-0.00000000	
Ca		3.17854409		2.20921287		0.00000000		-0.00041733		 0.00019171		-0.00000000	
Ca		9.17169923		3.36565042		0.00000000		0.00000000		0.00000000		-0.00000000	
Ca		0.00000000		0.00000000		5.71430981		0.00000000		0.00000000		0.00000000	
Ca		9.17169923		3.36565042		5.71430981		0.00000000		0.00000000		0.00000000	
Ca		0.00000000		0.00000000		0.00000000		0.00000000		0.00000000		0.00000000	
Si		7.68918577		4.84249761		8.59180754		 0.00037689		-0.00040698		-0.00014298	
Si		10.65421086		1.88880323		2.83681207		-0.00037689		 0.00040698		 0.00014298	
Si		10.65421086		1.88880323		8.59180754		-0.00037689		 0.00040698		-0.00014298	
Si		7.68918577		4.84249761		2.83681207		 0.00037689		-0.00040698		 0.00014298	
Si		1.48251346		1.47684719		8.55112188		-0.00037689		-0.00040698		 0.00014298	
Si		16.86088500		5.25445365		2.87749773		 0.00037689		 0.00040698		-0.00014298	
Si		16.86088500		5.25445365		8.55112188		 0.00037689		 0.00040698		 0.00014298	
Si		1.48251346		1.47684719		2.87749773		-0.00037689		-0.00040698		-0.00014298	
Si		12.17689820		4.95087040		5.71430981		 0.00068699		 0.00000101		0.00000000	
Si		6.16650026		1.78042860		5.71430981		-0.00068699		-0.00000101		0.00000000	
Si		15.33819949		1.58522182		0.00000000		-0.00068699		 0.00000101		0.00000000	
Si		3.00519897		5.14607902		0.00000000		 0.00068699		-0.00000101		0.00000000	
Si		6.20337049		1.90361186		0.00000000		 0.00004591		 0.00059826		-0.00000000	
Si		12.14002797		4.82768898		0.00000000		-0.00004591		-0.00059826		0.00000000	
Si		2.96832874		5.26926044		5.71430981		-0.00004591		 0.00059826		0.00000000	
Si		15.37506972		1.46203856		5.71430981		 0.00004591		-0.00059826		-0.00000000	
Mg		9.17169923		0.00000000		5.71430981		0.00000000		0.00000000		0.00000000	
Mg		0.00000000		3.36565042		0.00000000		0.00000000		0.00000000		0.00000000	
Mg		9.17169923		0.00000000		0.00000000		0.00000000		0.00000000		0.00000000	
Mg		0.00000000		3.36565042		5.71430981		0.00000000		0.00000000		0.00000000	
O		5.29573914		1.72994390		1.39429089		 0.00025963		 0.00023190		 0.00037187	
O		13.04765933		5.00135511		10.03432873		-0.00025963		-0.00023190		-0.00037187	
O		13.04765933		5.00135511		1.39429089		-0.00025963		-0.00023190		 0.00037187	
O		5.29573914		1.72994390		10.03432873		 0.00025963		 0.00023190		-0.00037187	
O		3.87596009		5.09559432		4.32001892		-0.00025963		 0.00023190		-0.00037187	
O		14.46743837		1.63570652		7.10860253		 0.00025963		-0.00023190		 0.00037187	
O		14.46743837		1.63570652		4.32001892		 0.00025963		-0.00023190		-0.00037187	
O		3.87596009		5.09559432		7.10860253		-0.00025963		 0.00023190		 0.00037187	
O		12.78168005		5.70410354		4.34630317		-0.00004278		 0.00028195		-0.00031337	
O		5.56171841		1.02719546		7.08231644		 0.00004278		-0.00028195		 0.00031337	
O		5.56171841		1.02719546		4.34630317		 0.00004278		-0.00028195		-0.00031337	
O		12.78168005		5.70410354		7.08231644		-0.00004278		 0.00028195		 0.00031337	
O		14.73341764		2.33845312		1.36800663		 0.00004278		 0.00028195		 0.00031337	
O		3.60998082		4.39284588		10.06061298		-0.00004278		-0.00028195		-0.00031337	
O		3.60998082		4.39284588		1.36800663		-0.00004278		-0.00028195		 0.00031337	
O		14.73341764		2.33845312		10.06061298		 0.00004278		 0.00028195		-0.00031337	
O		8.72595465		5.25647142		9.83547161		 0.00000552		 0.00048732		 0.00037183	
O		9.61744381		1.47482758		1.59314984		-0.00000552		-0.00048732		-0.00037183	
O		9.61744381		1.47482758		9.83547161		-0.00000552		-0.00048732		 0.00037183	
O		8.72595465		5.25647142		1.59314984		 0.00000552		 0.00048732		-0.00037183	
O		0.44574458		1.89082284		7.30745964		-0.00000552		 0.00048732		-0.00037183	
O		17.89765388		4.84047800		4.12115997		 0.00000552		-0.00048732		 0.00037183	
O		17.89765388		4.84047800		7.30745964		 0.00000552		-0.00048732		-0.00037183	
O		0.44574458		1.89082284		4.12115997		-0.00000552		 0.00048732		 0.00037183	
O		6.21712804		5.45302644		8.98517989		 0.00048004		-0.00016721		-0.00004319	
O		12.12627042		1.27827440		2.44343973		-0.00048004		 0.00016721		 0.00004319	
O		12.12627042		1.27827440		8.98517989		-0.00048004		 0.00016721		-0.00004319	
O		6.21712804		5.45302644		2.44343973		 0.00048004		-0.00016721		 0.00004319	
O		2.95457119		2.08737602		8.15774954		-0.00048004		-0.00016721		 0.00004319	
O		15.38882727		4.64392298		3.27087008		 0.00048004		 0.00016721		-0.00004319	
O		15.38882727		4.64392298		8.15774954		 0.00048004		 0.00016721		 0.00004319	
O		2.95457119		2.08737602		3.27087008		-0.00048004		-0.00016721		-0.00004319	
O		6.89711782		3.33805278		0.00000000		-0.00023167		 0.00017371		0.00000000	
O		11.44628064		3.39324806		0.00000000		 0.00023167		-0.00017371		-0.00000000	
O		2.27458141		6.70370136		5.71430981		 0.00023167		 0.00017371		0.00000000	
O		16.06881705		0.02759764		5.71430981		-0.00023167		-0.00017371		0.00000000	
O		7.54830847		3.29497147		8.21832127		-0.00049656		-0.00005777		 0.00014069	
O		10.79508999		3.43632937		3.21029834		 0.00049656		 0.00005777		-0.00014069	
O		10.79508999		3.43632937		8.21832127		 0.00049656		 0.00005777		 0.00014069	
O		7.54830847		3.29497147		3.21029834		-0.00049656		-0.00005777		-0.00014069	
O		1.62339076		6.66062005		8.92460998		 0.00049656		-0.00005777		-0.00014069	
O		16.72000770		0.07067895		2.50401147		-0.00049656		 0.00005777		 0.00014069	
O		16.72000770		0.07067895		8.92460998		-0.00049656		 0.00005777		-0.00014069	
O		1.62339076		6.66062005		2.50401147		 0.00049656		-0.00005777		 0.00014069	
O		7.29700391		0.70342164		0.00000000		-0.00025384		 0.00051599		-0.00000000	
O		11.04639455		6.02787920		0.00000000		 0.00025384		-0.00051599		-0.00000000	
O		1.87469532		4.06907022		5.71430981		 0.00025384		 0.00051599		0.00000000	
O		16.46870314		2.66222878		5.71430981		-0.00025384		-0.00051599		0.00000000	
O		10.57313487		5.19521731		5.71430981		 0.00071777		 0.00021223		0.00000000	
O		7.77026359		1.53608352		5.71430981		-0.00071777		-0.00021223		0.00000000	
O		16.94196282		1.82956689		0.00000000		-0.00071777		 0.00021223		-0.00000000	
O		1.40143564		4.90173211		0.00000000		 0.00071777		-0.00021223		-0.00000000	
O		12.74132457		3.45046479		5.71430981		 0.00031343		 0.00007477		0.00000000	
O		5.60207389		3.28083605		5.71430981		-0.00031343		-0.00007477		0.00000000	
O		14.77377312		0.08481437		0.00000000		-0.00031343		 0.00007477		-0.00000000	
O		3.56962534		6.64648463		0.00000000		 0.00031343		-0.00007477		-0.00000000	
O		8.14997194		5.66102224		7.19545852		-0.00028484		 0.00058495		-0.00012951	
O		10.19342652		1.07027677		4.23316109		 0.00028484		-0.00058495		 0.00012951	
O		10.19342652		1.07027677		7.19545852		 0.00028484		-0.00058495		-0.00012951	
O		8.14997194		5.66102224		4.23316109		-0.00028484		 0.00058495		 0.00012951	
O		1.02172729		2.29537365		9.94747090		 0.00028484		 0.00058495		 0.00012951	
O		17.32167117		4.43592535		1.48114871		-0.00028484		-0.00058495		-0.00012951	
O		17.32167117		4.43592535		9.94747090		-0.00028484		-0.00058495		 0.00012951	
O		1.02172729		2.29537365		1.48114871		 0.00028484		 0.00058495		-0.00012951	
