# total energy = -49446.7948376 eV	

CRYSTAL	
PRIMVEC	
		5.08940004		0.00000000		0.20357580	
		0.00000000		13.96800029		0.00000000	
		0.34782286		0.00000000		8.69560207	
PRIMCOORD
   70 1	
Si		2.54470002		0.00000000		0.10178790		0.00000000		0.00000000		0.00000000	
Si		0.17391194		6.98399964		4.34780002		0.00000000		0.00000000		0.00000000	
Si		2.47349892		5.25923160		0.09894014		-0.00005475		-0.00012467		-0.00004516	
Si		2.61590112		8.70876767		0.10463617		 0.00005475		 0.00012467		 0.00004516	
Si		0.24511304		12.24323175		4.35064778		 0.00005475		-0.00012467		 0.00004516	
Si		5.19211088		1.72476905		4.54852806		-0.00005475		 0.00012467		-0.00004516	
Mg		0.86219505		2.42358801		0.03448788		-0.00023119		 0.00006503		-0.00059431	
Mg		4.22720499		11.54441178		0.16908791		 0.00023119		-0.00006503		 0.00059431	
Mg		1.85641691		9.40758764		4.41510003		 0.00023119		 0.00006503		 0.00059431	
Mg		3.58080701		4.56041163		4.48407580		-0.00023119		-0.00006503		-0.00059431	
Mg		0.91832814		4.51808999		2.84786283		-0.00045613		 0.00005745		-0.00055424	
Mg		4.51889578		9.44991081		6.05131300		 0.00045613		-0.00005745		 0.00055424	
Mg		4.39632194		9.44991081		2.98698281		-0.00008031		 0.00001002		-0.00020649	
Mg		1.04090096		4.51808999		5.91219303		 0.00008031		-0.00001002		 0.00020649	
Mg		1.80028382		11.50208861		1.60172509		 0.00045613		 0.00005745		 0.00055424	
Mg		3.63694010		2.46591067		7.29745075		-0.00045613		-0.00005745		-0.00055424	
Mg		3.41168904		2.46591067		1.66618091		 0.00008031		 0.00001002		 0.00020649	
Mg		2.02553386		11.50208861		7.23299492		-0.00008031		-0.00001002		-0.00020649	
Mg		2.65644514		6.98399964		2.89542310		-0.00004834		-0.00041982		 0.00005698	
Mg		2.78077776		6.98399964		6.00375171		 0.00004834		 0.00041982		-0.00005698	
Mg		0.06216682		0.00000000		1.55416481		 0.00004834		-0.00041982		-0.00005698	
Mg		0.28565706		0.00000000		7.14143471		-0.00004834		 0.00041982		 0.00005698	
Mg		2.66361675		0.00000000		3.07472699		-0.00010691		-0.00021092		 0.00012584	
Mg		2.77360615		0.00000000		5.82444884		 0.00010691		 0.00021092		-0.00012584	
Mg		0.05499419		6.98399964		1.37486093		 0.00010691		-0.00021092		-0.00012584	
Mg		0.29283020		6.98399964		7.32073758		-0.00010691		 0.00021092		 0.00012584	
O		1.74505176		5.77129798		1.42518695		 0.00019856		-0.00002630		-0.00010719	
O		3.69217165		8.19670181		7.47398888		-0.00019856		 0.00002630		 0.00010719	
O		3.45295277		8.19670181		1.49350312		-0.00042370		-0.00010308		 0.00014114	
O		1.98427115		5.77129798		7.40567272		 0.00042370		 0.00010308		-0.00014114	
O		0.97356020		12.75529863		3.02440096		-0.00019856		-0.00002630		 0.00010719	
O		4.46366372		1.21270217		5.87477487		 0.00019856		 0.00002630		-0.00010719	
O		4.35505872		1.21270217		3.15966111		 0.00042370		-0.00010308		-0.00014114	
O		1.08216520		12.75529863		5.73951473		-0.00042370		 0.00010308		 0.00014114	
O		2.50953216		3.62092471		0.10038108		-0.00013971		-0.00003884		-0.00050690	
O		2.57986686		10.34707457		0.10319522		 0.00013971		 0.00003884		 0.00050690	
O		0.20907980		10.60492485		4.34920582		 0.00013971		-0.00003884		 0.00050690	
O		5.22814361		3.36307595		4.54996900		-0.00013971		 0.00003884		-0.00050690	
O		4.02780176		5.78973583		0.16111205		-0.00023548		-0.00031092		-0.00040479	
O		1.06159777		8.17826396		0.04246375		 0.00023548		 0.00031092		 0.00040479	
O		3.78020973		12.77373547		4.49205166		 0.00023548		-0.00031092		 0.00040479	
O		1.65701419		1.19426381		4.40712366		-0.00023548		 0.00031092		-0.00040479	
O		1.86417070		1.02064220		1.33028594		-0.00016974		-0.00030577		-0.00014568	
O		3.57305169		12.94735861		7.56888990		 0.00016974		 0.00030577		 0.00014568	
O		3.32584676		12.94735861		1.38875286		 0.00002801		 0.00059124		-0.00037469	
O		2.11137716		1.02064220		7.51042298		-0.00002801		-0.00059124		 0.00037469	
O		0.85443973		8.00464183		3.11930198		 0.00016974		-0.00030577		 0.00014568	
O		4.58278266		5.96335897		5.77987385		-0.00016974		 0.00030577		-0.00014568	
O		4.48216473		5.96335897		3.26441086		-0.00002801		 0.00059124		 0.00037469	
O		0.95505919		8.00464183		5.63476498		 0.00002801		-0.00059124		-0.00037469	
O		5.05596294		3.51784103		1.58436298		 0.00022094		-0.00026394		 0.00015685	
O		0.38125996		10.45015876		7.31481184		-0.00022094		 0.00026394		-0.00015685	
O		0.14418390		10.45015876		1.38789206		 0.00018829		 0.00054603		 0.00009332	
O		5.29304002		3.51784103		7.51128377		-0.00018829		-0.00054603		-0.00009332	
O		2.75204804		10.50184067		3.06880074		-0.00022094		-0.00026394		-0.00015685	
O		2.68517486		3.46615912		5.83037459		 0.00022094		 0.00026394		 0.00015685	
O		2.57442806		3.46615912		3.06169586		-0.00018829		 0.00054603		-0.00009332	
O		2.86279485		10.50184067		5.83747998		 0.00018829		-0.00054603		 0.00009332	
O		0.99589405		12.86159476		0.03983603		 0.00017945		 0.00038518		 0.00014133	
O		4.09350600		1.10640502		0.16373977		-0.00017945		-0.00038518		-0.00014133	
O		1.72271791		5.87759462		4.40975189		-0.00017945		 0.00038518		-0.00014133	
O		3.71450601		8.09040466		4.48942394		 0.00017945		-0.00038518		 0.00014133	
H		4.73576400		4.22671704		1.13139409		-0.00018439		-0.00016453		-0.00043599	
H		0.70145992		9.74128275		7.76778174		 0.00018439		 0.00016453		 0.00043599	
H		0.42911413		9.74128275		0.95912785		 0.00091681		-0.00021702		-0.00031359	
H		5.00810979		4.22671704		7.94004798		-0.00091681		 0.00021702		 0.00031359	
H		3.07224800		11.21071667		3.52177013		 0.00018439		-0.00016453		 0.00043599	
H		2.36497592		2.75728311		5.37740468		-0.00018439		 0.00016453		-0.00043599	
H		2.28949783		2.75728311		3.49046006		-0.00091681		-0.00021702		 0.00031359	
H		3.14772609		11.21071667		5.40871475		 0.00091681		 0.00021702		-0.00031359	
