# total energy = -49443.257985 eV	

CRYSTAL	
PRIMVEC	
		5.08939832		0.00000000		-0.40715084	
		0.00000000		13.96799784		0.00000000	
		-0.69564615		0.00000000		8.69559735	
PRIMCOORD
   70 1	
Si		2.54469967		0.00000000		-0.20357593		0.00000000		0.00000000		0.00000000	
Si		-0.34782410		6.98399943		4.34779970		-0.00000000		0.00000000		-0.00000000	
Si		2.47349869		5.25923197		-0.19788006		-0.00012799		 0.00006114		-0.00022030	
Si		2.61590065		8.70876740		-0.20927181		 0.00012799		-0.00006114		 0.00022030	
Si		-0.27662312		12.24323140		4.34210382		 0.00012799		 0.00006114		 0.00022030	
Si		4.67037478		1.72476899		3.94634371		-0.00012799		-0.00006114		-0.00022030	
Mg		0.86219482		2.42358780		-0.06897593		-0.00010896		-0.00008704		-0.00021447	
Mg		4.22720503		11.54441157		-0.33817593		 0.00010896		 0.00008704		 0.00021447	
Mg		1.33468075		9.40758775		4.21319868		 0.00010896		-0.00008704		 0.00021447	
Mg		3.05907091		4.56041163		4.07524783		-0.00010896		 0.00008704		-0.00021447	
Mg		0.58045175		4.51808979		2.75117868		-0.00008694		 0.00015534		 0.00041099	
Mg		3.81329991		9.44991060		5.53726885		 0.00008694		-0.00015534		-0.00041099	
Mg		4.05844562		9.44991060		2.47293911		 0.00010453		-0.00005126		 0.00020270	
Mg		0.33530604		4.51808979		5.81550791		-0.00010453		 0.00005126		-0.00020270	
Mg		1.61642383		11.50208820		1.39304508		 0.00008694		 0.00015534		-0.00041099	
Mg		2.77732783		2.46591066		6.89540143		-0.00008694		-0.00015534		 0.00041099	
Mg		3.22782981		2.46591066		1.26413177		-0.00010453		-0.00005126		-0.00020270	
Mg		1.16592185		11.50208820		7.02431474		 0.00010453		 0.00005126		 0.00020270	
Mg		2.32120911		6.98399943		2.59005886		-0.00009738		-0.00000595		 0.00015007	
Mg		2.07254306		6.98399943		5.69838764		 0.00009738		 0.00000595		-0.00015007	
Mg		-0.12433303		0.00000000		1.55416490		 0.00009738		-0.00000595		-0.00015007	
Mg		-0.57131517		0.00000000		7.14143450		-0.00009738		 0.00000595		 0.00015007	
Mg		2.30686476		0.00000000		2.76936300		 0.00014400		-0.00006074		 0.00000191	
Mg		2.08688690		0.00000000		5.51908453		-0.00014400		 0.00006074		-0.00000191	
Mg		-0.10998919		6.98399943		1.37486076		-0.00014400		-0.00006074		-0.00000191	
Mg		-0.58565901		6.98399943		7.32073761		 0.00014400		 0.00006074		 0.00000191	
O		1.58214494		5.77129749		1.22229701		-0.00008465		-0.00028828		-0.00004995	
O		2.81160672		8.19670138		7.06615052		 0.00008465		 0.00028828		 0.00004995	
O		3.29004585		8.19670138		1.08566496		 0.00017457		-0.00032649		 0.00009932	
O		1.10370581		5.77129749		7.20278257		-0.00017457		 0.00032649		-0.00009932	
O		0.61473115		12.75529845		2.92192675		 0.00008465		-0.00028828		 0.00004995	
O		3.77902102		1.21270194		5.36652078		-0.00008465		 0.00028828		-0.00004995	
O		3.99622958		1.21270194		2.65140694		-0.00017457		-0.00032649		-0.00009932	
O		0.39752208		12.75529845		5.63704059		 0.00017457		 0.00032649		 0.00009932	
O		2.50953189		3.62092478		-0.20076322		 0.00004244		 0.00006134		 0.00043046	
O		2.57986695		10.34707460		-0.20638915		-0.00004244		-0.00006134		-0.00043046	
O		-0.31265580		10.60492472		4.34498597		-0.00004244		 0.00006134		-0.00043046	
O		4.70640797		3.36307568		3.94346105		 0.00004244		-0.00006134		 0.00043046	
O		4.02780196		5.78973556		-0.32222381		-0.00009811		-0.00018042		 0.00042522	
O		1.06159790		8.17826382		-0.08492806		 0.00009811		 0.00018042		-0.00042522	
O		3.25847398		12.77373550		4.05929571		 0.00009811		-0.00018042		-0.00042522	
O		1.13527819		1.19426387		4.22915182		-0.00009811		 0.00018042		 0.00042522	
O		1.71324399		1.02064183		1.11262284		-0.00016687		 0.00010529		-0.00012784	
O		2.68050767		12.94735857		7.17582469		 0.00016687		-0.00010529		 0.00012784	
O		3.17491884		12.94735857		0.99568791		-0.00000454		 0.00019224		-0.00011328	
O		1.21883282		1.02064183		7.29275860		 0.00000454		-0.00019224		 0.00011328	
O		0.48363210		8.00464177		3.03160092		 0.00016687		 0.00010529		 0.00012784	
O		3.91011956		5.96335863		5.25684559		-0.00016687		-0.00010529		-0.00012784	
O		4.11135659		5.96335863		2.74138296		 0.00000454		 0.00019224		 0.00011328	
O		0.28239507		8.00464177		5.54706355		-0.00000454		-0.00019224		-0.00011328	
O		4.88984259		3.51784099		0.98429208		-0.00012913		 0.00005278		 0.00008000	
O		-0.49609093		10.45015838		7.30415443		 0.00012913		-0.00005278		-0.00008000	
O		-0.02193698		10.45015838		1.37723490		 0.00005613		 0.00009942		-0.00003111	
O		4.41568864		3.51784099		6.91121263		-0.00005613		-0.00009942		 0.00003111	
O		2.39643284		10.50184042		2.75277880		 0.00012913		 0.00005278		-0.00008000	
O		1.99731882		3.46615895		5.53566771		-0.00012913		-0.00005278		 0.00008000	
O		2.21881306		3.46615895		2.76698887		-0.00005613		 0.00009942		 0.00003111	
O		2.17493911		10.50184042		5.52145866		 0.00005613		-0.00009942		-0.00003111	
O		0.99589418		12.86159421		-0.07967178		-0.00036502		 0.00018011		-0.00000488	
O		4.09350567		1.10640517		-0.32748009		 0.00036502		-0.00018011		 0.00000488	
O		1.20098190		5.87759477		4.22389503		 0.00036502		 0.00018011		 0.00000488	
O		3.19276976		8.09040460		4.06455199		-0.00036502		-0.00018011		-0.00000488	
H		4.62254700		4.22671693		0.56763092		 0.00000737		-0.00009870		 0.00012086	
H		-0.22879483		9.74128244		7.72081661		-0.00000737		 0.00009870		-0.00012086	
H		0.31589688		9.74128244		0.91216289		-0.00084871		-0.00006052		-0.00001501	
H		4.07785478		4.22671693		7.37628464		 0.00084871		 0.00006052		 0.00001501	
H		2.66372894		11.21071636		3.16944098		-0.00000737		-0.00009870		-0.00012086	
H		1.73002272		2.75728301		5.11900553		 0.00000737		 0.00009870		 0.00012086	
H		1.88097870		2.75728301		3.23206087		 0.00084871		-0.00006052		 0.00001501	
H		2.51277296		11.21071636		5.05638564		-0.00084871		 0.00006052		-0.00001501	
