# total energy = -20634.6003635 eV	

CRYSTAL	
PRIMVEC	
		10.20141117		0.00000000		1.22416687	
		0.00000000		5.98348356		0.00000000	
		0.57064085		0.00000000		4.75534041	
PRIMCOORD
   28 1	
Mg		0.00000000		0.00000000		0.00000000		0.00000000		0.00000000		0.00000000	
Mg		5.38602601		0.00000000		2.98975467		0.00000000		0.00000000		0.00000000	
Mg		0.00000000		2.99173972		0.00000000		0.00000000		0.00000000		0.00000000	
Mg		5.38602601		2.99173972		2.98975467		0.00000000		0.00000000		0.00000000	
Mg		3.39464058		1.49587038		5.05438153		 0.00030900		0.00000000		-0.00001898	
Mg		7.37740938		4.48761010		0.92512678		-0.00030900		0.00000000		 0.00001898	
Mg		2.55232397		4.48761010		2.60987199		 0.00015870		0.00000000		-0.00020631	
Mg		8.21972702		1.49587038		3.36963735		-0.00015870		-0.00000000		 0.00020631	
Si		1.20225424		1.49587038		2.14274874		 0.00008198		0.00000000		-0.00032838	
Si		9.56979675		4.48761010		3.83675958		-0.00008198		0.00000000		 0.00032838	
Si		4.67041368		4.48761010		4.90235962		-0.00026053		-0.00000000		-0.00024038	
Si		6.10163629		1.49587038		1.07714972		 0.00026053		-0.00000000		 0.00024038	
O		1.37116143		1.49587038		3.75139617		 0.00029077		0.00000000		-0.00011654	
O		9.40089059		4.48761010		2.22811420		-0.00029077		0.00000000		 0.00011654	
O		4.31764669		4.48761010		1.76154166		-0.00041336		0.00000000		-0.00049536	
O		6.45440328		1.49587038		4.21796665		 0.00041336		0.00000000		 0.00049536	
O		4.68517827		1.49587038		1.59848689		-0.00005944		0.00000000		 0.00026922	
O		6.08687169		4.48761010		4.38102246		 0.00005944		0.00000000		-0.00026922	
O		0.95318362		4.48761010		3.49407916		 0.00019458		0.00000000		-0.00016861	
O		9.81886634		1.49587038		2.48543018		-0.00019458		0.00000000		 0.00016861	
O		1.81829340		0.19865214		1.52020576		 0.00036851		-0.00004508		 0.00044025	
O		8.95375759		5.78482730		4.45930358		-0.00036851		 0.00004508		-0.00044025	
O		3.88477996		5.78482730		4.11161533		-0.00027669		-0.00009782		-0.00023508	
O		6.88727102		0.19865214		1.86789402		 0.00027669		 0.00009782		 0.00023508	
O		8.95375759		3.19039187		4.45930358		-0.00036851		-0.00004508		-0.00044025	
O		1.81829340		2.79308758		1.52020576		 0.00036851		 0.00004508		 0.00044025	
O		6.88727102		2.79308758		1.86789402		 0.00027669		-0.00009782		 0.00023508	
O		3.88477996		3.19039187		4.11161533		-0.00027669		 0.00009782		-0.00023508	
