# total energy = -20638.404833 eV	

CRYSTAL	
PRIMVEC	
		10.20141015		0.00000000		0.40805600	
		0.00000000		5.98348044		0.00000000	
		0.19021445		0.00000000		4.75534093	
PRIMCOORD
   28 1	
Mg		0.00000000		0.00000000		0.00000000		0.00000000		0.00000000		0.00000000	
Mg		5.19581230		0.00000000		2.58169744		0.00000000		0.00000000		0.00000000	
Mg		0.00000000		2.99174022		0.00000000		0.00000000		0.00000000		0.00000000	
Mg		5.19581230		2.99174022		2.58169744		0.00000000		0.00000000		0.00000000	
Mg		3.01744791		1.49587011		4.82807389		 0.00082811		-0.00000000		 0.00028698	
Mg		7.37417567		4.48761033		0.33532304		-0.00082811		0.00000000		-0.00028698	
Mg		2.36534343		4.48761033		2.42812410		 0.00028245		0.00000000		-0.00077873	
Mg		8.02628015		1.49587011		2.73527282		-0.00028245		-0.00000000		 0.00077873	
Si		1.04004048		1.49587011		2.06603362		 0.00010807		0.00000000		-0.00008818	
Si		9.35158412		4.48761033		3.09736228		-0.00010807		0.00000000		 0.00008818	
Si		4.31798653		4.48761033		4.57101739		 0.00038928		-0.00000000		-0.00025799	
Si		6.07363705		1.49587011		0.59237851		-0.00038928		-0.00000000		 0.00025799	
O		1.08002013		1.49587011		3.67663987		-0.00037051		0.00000000		-0.00003050	
O		9.31160345		4.48761033		1.48675705		 0.00037051		0.00000000		 0.00003050	
O		4.21671987		4.48761033		1.42824193		-0.00015641		0.00000000		-0.00020534	
O		6.17490371		1.49587011		3.73515499		 0.00015641		0.00000000		 0.00020534	
O		4.60106721		1.49587011		1.23376601		-0.00047668		0.00000000		-0.00004901	
O		5.79055637		4.48761033		3.92963092		 0.00047668		0.00000000		 0.00004901	
O		0.67885763		4.48761033		3.45074298		-0.00019816		-0.00000000		 0.00032126	
O		9.71276595		1.49587011		1.71265292		 0.00019816		0.00000000		-0.00032126	
O		1.71261106		0.19865164		1.38742408		-0.00010739		-0.00028367		 0.00025928	
O		8.67901252		5.78482778		3.77597182		 0.00010739		 0.00028367		-0.00025928	
O		3.58888354		5.78482778		3.83634099		 0.00018253		-0.00043382		-0.00015551	
O		6.80274005		0.19865164		1.32705593		-0.00018253		 0.00043382		 0.00015551	
O		8.67901252		3.19039186		3.77597182		 0.00010739		-0.00028367		-0.00025928	
O		1.71261106		2.79308756		1.38742408		-0.00010739		 0.00028367		 0.00025928	
O		6.80274005		2.79308756		1.32705593		-0.00018253		-0.00043382		 0.00015551	
O		3.58888354		3.19039186		3.83634099		 0.00018253		 0.00043382		-0.00015551	
