# total energy = -20636.9765703 eV	

CRYSTAL	
PRIMVEC	
		10.20140705		0.00000000		-0.81611052	
		0.00000000		5.98348345		0.00000000	
		-0.38042857		0.00000000		4.75534177	
PRIMCOORD
   28 1	
Mg		0.00000000		0.00000000		0.00000000		0.00000000		0.00000000		0.00000000	
Mg		4.91049231		0.00000000		1.96961358		0.00000000		0.00000000		0.00000000	
Mg		0.00000000		2.99173968		0.00000000		0.00000000		0.00000000		0.00000000	
Mg		4.91049231		2.99173968		1.96961358		0.00000000		0.00000000		0.00000000	
Mg		2.45165658		1.49587035		4.48861194		 0.00089454		0.00000000		 0.00012899	
Mg		7.36932600		4.48761003		-0.54938376		-0.00089454		0.00000000		-0.00012899	
Mg		2.08487403		4.48761003		2.15550093		 0.00029611		0.00000000		 0.00013325	
Mg		7.73610855		1.49587035		1.78372623		-0.00029611		-0.00000000		-0.00013325	
Si		0.79671811		1.49587035		1.95096211		 0.00044252		0.00000000		 0.00014454	
Si		9.02426447		4.48761003		1.98826505		-0.00044252		0.00000000		-0.00014454	
Si		3.78934507		4.48761003		4.07400487		 0.00004554		0.00000000		 0.00050124	
Si		6.03163750		1.49587035		-0.13477772		-0.00004554		0.00000000		-0.00050124	
O		0.64330836		1.49587035		3.56450609		 0.00009819		0.00000000		 0.00053109	
O		9.17767524		4.48761003		0.37472209		-0.00009819		0.00000000		-0.00053109	
O		4.06532849		4.48761003		0.92829053		 0.00074003		0.00000000		 0.00038363	
O		5.75565409		1.49587035		3.01093560		-0.00074003		0.00000000		-0.00038363	
O		4.47489838		1.49587035		0.68668518		 0.00039931		0.00000000		 0.00004796	
O		5.34608522		4.48761003		3.25254300		-0.00039931		0.00000000		-0.00004796	
O		0.26736945		4.48761003		3.38573956		-0.00076407		0.00000000		 0.00009731	
O		9.55361415		1.49587035		0.55348657		 0.00076407		0.00000000		-0.00009731	
O		1.55408647		0.19865222		1.18825159		-0.00000352		-0.00050511		 0.00025052	
O		8.26689610		5.78482816		2.75097556		 0.00000352		 0.00050511		-0.00025052	
O		3.14503889		5.78482816		3.42342934		-0.00009946		-0.00036806		-0.00008344	
O		6.67594368		0.19865222		0.51579884		 0.00009946		 0.00036806		 0.00008344	
O		8.26689610		3.19039190		2.75097556		 0.00000352		-0.00050511		-0.00025052	
O		1.55408647		2.79308746		1.18825159		-0.00000352		 0.00050511		 0.00025052	
O		6.67594368		2.79308746		0.51579884		 0.00009946		-0.00036806		 0.00008344	
O		3.14503889		3.19039190		3.42342934		-0.00009946		 0.00036806		-0.00008344	
