# total energy = -9215.23683284 eV

CRYSTAL
PRIMVEC
		5.32599971		0.00000000		0.00000000
		-2.66299986		4.61244890		0.00000000
		0.00000000		0.00000000		7.47019926
PRIMECORD
   18 1
Mg		1.76716670		0.00000000		3.39894064		 0.00026504		0.00000000		-0.00016768
Mg		-0.88358282		1.53041110		3.39894064		-0.00013253		 0.00022954		-0.00016768
Mg		1.77941704		3.08203993		3.39894064		-0.00013253		-0.00022954		-0.00016768
Si		0.00000000		3.07496806		0.55279510		-0.00000000		0.00000000		 0.00022795
Si		2.66299986		1.53748403		0.55279510		0.00000000		0.00000000		 0.00022795
H		3.10505783		0.00000000		5.46818579		 0.00005532		-0.00000000		-0.00041093
H		-1.55252892		2.68905891		5.46818579		-0.00002767		 0.00004791		-0.00041093
H		1.11047094		1.92339212		5.46818579		-0.00002767		-0.00004791		-0.00041093
H		0.00000000		0.00000000		1.47162911		0.00000000		0.00000000		-0.00078769
O		0.00000000		3.07496806		2.17457479		0.00000000		0.00000000		 0.00012710
O		2.66299986		1.53748403		2.17457479		0.00000000		0.00000000		 0.00012710
O		2.70028185		0.00000000		7.41043781		 0.00072125		0.00000000		 0.00032898
O		-1.35014093		2.33851279		7.41043781		-0.00036063		 0.00062462		 0.00032898
O		1.31285893		2.27393771		7.41043781		-0.00036063		-0.00062462		 0.00032898
O		3.53646381		0.00000000		4.39247765		-0.00094107		0.00000000		 0.00029165
O		-1.76823190		3.06266767		4.39247765		 0.00047054		-0.00081500		 0.00029165
O		0.89476795		1.54978390		4.39247765		 0.00047054		 0.00081500		 0.00029165
O		0.00000000		0.00000000		2.27094077		0.00000000		0.00000000		-0.00004846
