# total energy = -9215.18096251 eV

CRYSTAL
PRIMVEC
		5.32599971		0.00000000		0.00000000
		-2.66299986		4.61244890		0.00000000
		0.00000000		0.00000000		7.65240171
PRIMECORD
   18 1
Mg		1.76716670		0.00000000		3.48184195		 0.00025632		0.00000000		-0.00012401
Mg		-0.88358282		1.53041110		3.48184195		-0.00012816		 0.00022198		-0.00012401
Mg		1.77941704		3.08203993		3.48184195		-0.00012816		-0.00022198		-0.00012401
Si		0.00000000		3.07496806		0.56627787		-0.00000000		0.00000000		-0.00035180
Si		2.66299986		1.53748403		0.56627787		0.00000000		0.00000000		-0.00035180
H		3.10505783		0.00000000		5.60155682		 0.00027191		0.00000000		 0.00031734
H		-1.55252892		2.68905891		5.60155682		-0.00013596		 0.00023549		 0.00031734
H		1.11047094		1.92339212		5.60155682		-0.00013596		-0.00023549		 0.00031734
H		0.00000000		0.00000000		1.50752315		0.00000000		-0.00000000		 0.00021349
O		0.00000000		3.07496806		2.22761376		0.00000000		-0.00000000		-0.00026808
O		2.66299986		1.53748403		2.22761376		0.00000000		0.00000000		-0.00026808
O		2.70028185		0.00000000		7.59118041		 0.00044084		0.00000000		-0.00003596
O		-1.35014093		2.33851279		7.59118041		-0.00022043		 0.00038178		-0.00003596
O		1.31285893		2.27393771		7.59118041		-0.00022043		-0.00038178		-0.00003596
O		3.53646381		0.00000000		4.49961067		-0.00089140		0.00000000		 0.00019719
O		-1.76823190		3.06266767		4.49961067		 0.00044570		-0.00077197		 0.00019719
O		0.89476795		1.54978390		4.49961067		 0.00044570		 0.00077197		 0.00019719
O		0.00000000		0.00000000		2.32633010		0.00000000		0.00000000		-0.00003742
