# total energy = -49448.0768735 eV

CRYSTAL
PRIMVEC
		13.97072245		-0.00001402		-0.00001402
		0.00000000		5.09799032		0.00000000
		0.00000000		0.00000000		8.73016415
PRIMECORD
   70 1
Mg		2.42769738		1.71196433		0.05541443		 0.00006722		 0.00011053		-0.00025774
Mg		11.54301385		3.38602178		0.05540742		-0.00006574		-0.00011010		-0.00025814
Mg		9.41305580		0.83702382		4.42048949		 0.00005959		-0.00010985		-0.00025801
Mg		4.55764982		4.26096089		4.42049230		-0.00005802		 0.00010968		-0.00025849
Mg		2.46996291		4.30640426		1.59167768		-0.00045089		-0.00042501		 0.00004674
Mg		11.50074551		0.79158185		1.59167067		 0.00045147		 0.00042427		 0.00004707
Mg		9.45532133		3.34058262		5.95675274		-0.00045791		 0.00042282		 0.00004844
Mg		4.51538148		1.75740349		5.95675554		 0.00045927		-0.00042226		 0.00004906
Mg		4.51500284		1.75897838		2.88448850		 0.00053017		-0.00018890		-0.00018280
Mg		9.45570418		3.33900773		2.88448429		-0.00052889		 0.00018923		-0.00018210
Mg		11.50036125		0.79000696		7.24956216		 0.00052275		 0.00019081		-0.00018049
Mg		2.47034015		4.30797775		7.24956917		-0.00052134		-0.00019175		-0.00018016
Mg		0.00000000		2.54899796		7.22791471		-0.00000179		 0.00000015		 0.00005991
Mg		6.98535561		0.00000000		2.86282983		-0.00000038		-0.00000057		 0.00005719
Mg		0.00000000		2.54899796		1.61352707		-0.00000090		-0.00000023		 0.00027550
Mg		6.98535281		0.00000000		5.97860073		 0.00000018		-0.00000020		 0.00027808
Mg		0.00000000		0.00000000		5.80749251		-0.00000126		 0.00000031		-0.00040972
Mg		6.98535561		2.54899235		1.44240763		-0.00000160		 0.00000106		-0.00041367
Mg		0.00000000		0.00000000		3.03945369		-0.00000077		-0.00000009		-0.00042267
Mg		6.98535141		2.54899235		7.40452595		-0.00000148		 0.00000133		-0.00041848
Si		0.00000000		0.00000000		0.05668921		-0.00000301		-0.00000016		-0.00004942
Si		6.98535281		2.54899235		4.42176287		-0.00000019		 0.00000075		-0.00005006
Si		5.25543496		0.07882469		0.05671165		-0.00015297		-0.00013500		-0.00011775
Si		8.71527487		5.01916703		0.05670744		 0.00015877		 0.00012164		-0.00011442
Si		12.24079758		2.47016766		4.42178671		-0.00018338		 0.00011387		-0.00011713
Si		1.72990944		2.62781845		4.42179513		 0.00018033		-0.00011472		-0.00011696
O		5.77485585		3.59563290		8.78725865		-0.00021002		-0.00028184		-0.00017803
O		8.19584135		1.50235041		8.78725865		 0.00021305		 0.00028926		-0.00018095
O		12.76021568		4.05134276		4.42217378		-0.00020772		 0.00029764		-0.00017880
O		1.21048854		1.04664194		4.42218359		 0.00020929		-0.00029664		-0.00018044
O		1.10867711		3.54435695		0.05671305		 0.00010018		-0.00022678		-0.00025799
O		12.86203412		1.55363057		0.05670464		-0.00009774		 0.00022608		-0.00025729
O		8.09403132		4.10263134		4.42178812		 0.00010041		 0.00022639		-0.00025740
O		5.87667430		0.99535337		4.42178952		-0.00010100		-0.00022646		-0.00025728
O		3.44363378		0.11382860		3.03661243		 0.00018352		-0.00063870		 0.00052691
O		10.52708446		4.98415331		3.03661383		-0.00021780		 0.00065217		 0.00050509
O		10.42897677		2.43515674		7.40169170		 0.00021615		 0.00064870		 0.00050961
O		3.54175690		2.66284199		7.40171835		-0.00032096		-0.00068850		 0.00044342
O		3.54225194		2.66111423		1.43483186		-0.00016554		-0.00026159		 0.00045249
O		10.42845928		2.43687188		1.43482625		 0.00016271		 0.00026103		 0.00045131
O		10.52758231		4.98587686		5.79991955		-0.00009157		 0.00023654		 0.00040854
O		3.44311068		0.11211206		5.79991814		 0.00012422		-0.00024890		 0.00043106
O		1.02824807		0.74537979		1.32862811		-0.00033212		 0.00001581		 0.00015551
O		12.94246176		4.35260632		1.32861970		 0.00033427		-0.00001572		 0.00015508
O		8.01360087		1.80361116		5.69370318		-0.00033255		-0.00001473		 0.00015439
O		5.95710194		3.29437354		5.69370458		 0.00033247		 0.00001476		 0.00015325
O		5.95839215		3.29365972		3.14800225		-0.00047231		 0.00057701		 0.00022585
O		8.01231487		1.80432639		3.14800085		 0.00047188		-0.00057782		 0.00022545
O		12.94374495		4.35332015		7.51307732		-0.00047023		-0.00057803		 0.00022380
O		1.02695505		0.74466456		7.51308713		 0.00047279		 0.00057901		 0.00022377
O		5.78040235		0.86023354		1.42710324		 0.00003112		-0.00015014		 0.00009033
O		8.19030607		4.23775257		1.42710183		-0.00002862		 0.00015373		 0.00008697
O		12.76575516		1.68875040		5.79217830		 0.00003443		 0.00015176		 0.00008691
O		1.20494625		3.40923571		5.79218671		-0.00003110		-0.00015328		 0.00008731
O		1.20444700		3.40872103		3.05133202		 0.00010425		 0.00011607		-0.00045967
O		12.76626002		1.68926508		3.05132361		-0.00010368		-0.00011546		-0.00045966
O		8.18979981		4.23826585		7.41640708		 0.00010660		-0.00011642		-0.00046170
O		5.78090020		0.85971886		7.41640848		-0.00010702		 0.00011662		-0.00046245
O		3.60503599		0.05433038		0.05531486		 0.00024641		-0.00022239		-0.00015571
O		10.36567804		5.04365573		0.05530785		-0.00025204		 0.00022452		-0.00015416
O		10.59038038		2.49465637		4.42038852		 0.00027050		 0.00022547		-0.00015555
O		3.38032383		2.60332974		4.42039413		-0.00026999		-0.00022554		-0.00015342
H		4.33041895		2.96935894		0.93739078		-0.00005465		-0.00031955		 0.00046189
H		9.64029087		2.12862717		0.93738517		 0.00005735		 0.00032081		 0.00046360
H		11.31579280		4.67761672		5.30245182		-0.00012031		 0.00034492		 0.00050352
H		2.65492123		0.42036518		5.30246584		 0.00008929		-0.00033307		 0.00048333
H		2.65429857		0.42503237		3.53026423		 0.00031171		-0.00062780		-0.00007179
H		11.31639864		4.67295795		3.53025161		-0.00028077		 0.00061562		-0.00005189
H		9.63965839		2.12395858		7.89533368		 0.00028465		 0.00061741		-0.00005517
H		4.33100936		2.97401350		7.89531825		-0.00018879		-0.00057955		 0.00000621
