# total energy = -49448.0672589 eV

CRYSTAL
PRIMVEC
		14.13415814		-0.00008414		0.00004207
		-0.00002805		5.15979408		0.00000000
		0.00002805		0.00000000		8.83246922
PRIMECORD
   70 1
Mg		2.45967070		1.72637539		0.05636245		 0.00036638		 0.00008425		-0.00012038
Mg		11.67446360		3.43333876		0.05638910		-0.00037461		-0.00008569		-0.00011765
Mg		9.52678763		0.85345434		4.47262091		 0.00030577		-0.00008065		-0.00012257
Mg		4.60737051		4.30626402		4.47260688		-0.00031420		 0.00008188		-0.00012008
Mg		2.50252103		4.36006288		1.61366871		-0.00038529		-0.00041230		-0.00015371
Mg		11.63162028		0.79965267		1.61369395		 0.00038111		 0.00041524		-0.00015595
Mg		9.56964076		3.37957074		6.02992156		-0.00044694		 0.00039606		-0.00013807
Mg		4.56452719		1.78015042		6.02990753		 0.00043874		-0.00039998		-0.00014091
Mg		4.56664061		1.78247980		2.91606914		 0.00010628		-0.00066790		-0.00007529
Mg		9.56750771		3.37723715		2.91608597		-0.00011186		 0.00066602		-0.00007879
Mg		11.63375894		0.79732468		7.33232058		 0.00004600		 0.00068422		-0.00005852
Mg		2.50041602		4.36239648		7.33229814		-0.00005409		-0.00068063		-0.00006157
Mg		0.00000000		2.57990265		7.31256638		 0.00000733		-0.00000116		-0.00017587
Mg		7.06708748		-0.00004067		2.89635561		 0.00000375		 0.00000192		-0.00019691
Mg		0.00000000		2.57989844		1.63454063		 0.00000291		 0.00000008		-0.00015322
Mg		7.06709730		-0.00003786		6.05078927		 0.00000212		 0.00000069		-0.00013343
Mg		0.00000000		0.00000000		5.87637559		 0.00000799		 0.00000110		-0.00072140
Mg		7.06706645		2.57985918		1.46017323		 0.00000751		-0.00000393		-0.00075366
Mg		0.00000000		0.00000000		3.07217309		 0.00000537		 0.00000266		 0.00037638
Mg		7.06708468		2.57986338		7.48842032		 0.00000767		-0.00000460		 0.00040980
Si		0.00000000		0.00000000		0.05722914		 0.00001093		 0.00000170		-0.00005529
Si		7.06707626		2.57986058		4.47348899		 0.00000631		-0.00000286		-0.00005924
Si		5.31973920		0.08328012		0.05717585		 0.00012983		-0.00030018		-0.00014565
Si		8.81439509		5.07641860		0.05719268		-0.00014348		 0.00034602		-0.00015953
Si		12.38687296		2.49654821		4.47343991		-0.00005004		 0.00020353		-0.00016165
Si		1.74728237		2.66317856		4.47340625		 0.00004996		-0.00022519		-0.00015557
O		5.84300829		3.65645498		8.88930709		-0.00029878		-0.00021280		-0.00003929
O		8.29117790		1.50327599		8.88930990		 0.00028466		 0.00018876		-0.00002627
O		12.91006632		4.08311414		4.47308791		-0.00027633		 0.00029254		-0.00003558
O		1.22409462		1.07660141		4.47305144		 0.00026512		-0.00028239		-0.00003179
O		1.11793575		3.59524303		0.05610301		 0.00004341		-0.00053792		 0.00031032
O		13.01619714		1.56446972		0.05613807		-0.00005129		 0.00054068		 0.00030644
O		8.18502043		4.14440042		4.47236006		 0.00005830		 0.00053803		 0.00031045
O		5.94913631		1.01531934		4.47235165		-0.00006093		-0.00053939		 0.00031081
O		3.48951189		0.11760807		3.07403267		 0.00009525		-0.00029932		 0.00008990
O		10.64456771		5.04213553		3.07401304		 0.00011826		 0.00021533		 0.00022755
O		10.55637499		2.46213611		7.49042295		 0.00078809		 0.00054763		-0.00032381
O		3.57765132		2.69752895		7.49030935		-0.00033421		-0.00037148		-0.00003633
O		3.57993022		2.69592741		1.45076172		-0.00038366		-0.00038640		 0.00055721
O		10.55421669		2.46379095		1.45078837		 0.00035810		 0.00037578		 0.00053826
O		10.64685643		5.04373988		5.86710853		 0.00011364		 0.00021704		 0.00026969
O		3.48730311		0.11598268		5.86708469		-0.00009977		-0.00022216		 0.00027099
O		1.03342573		0.74881426		1.33597389		 0.00001573		 0.00011787		-0.00016172
O		13.10071418		4.41090129		1.33601175		-0.00002194		-0.00011854		-0.00015940
O		8.10051041		1.83103229		5.75223655		 0.00002251		-0.00010995		-0.00017455
O		6.03365474		3.32868747		5.75223094		-0.00002716		 0.00011069		-0.00017008
O		6.03365755		3.32828357		3.19379202		 0.00002027		 0.00036424		 0.00013466
O		8.10049217		1.83143198		3.19379622		-0.00002283		-0.00036021		 0.00013649
O		13.10074363		4.41130658		7.61005468		 0.00002120		-0.00037293		 0.00012023
O		1.03343414		0.74841598		7.61001681		-0.00003111		 0.00036849		 0.00012240
O		5.84645538		0.87055801		1.43650773		 0.00001428		 0.00003717		-0.00021479
O		8.28768733		4.28916175		1.43651334		-0.00002664		-0.00005103		-0.00020286
O		12.91353586		1.70923245		5.85276899		 0.00003548		-0.00003333		-0.00022242
O		1.22063210		3.45048450		5.85273673		-0.00004968		 0.00004076		-0.00022372
O		1.22010059		3.45130911		3.09453716		 0.00025517		-0.00014602		-0.00023801
O		12.91404773		1.70840784		3.09456801		-0.00025873		 0.00014881		-0.00023175
O		8.28717966		4.28833854		7.51080122		 0.00027845		 0.00013927		-0.00025479
O		5.84699391		0.87138402		7.51079140		-0.00028056		-0.00014062		-0.00025398
O		3.65809439		0.05904665		0.05496566		 0.00040544		-0.00030748		 0.00022793
O		10.47603009		5.10066890		0.05498950		-0.00038797		 0.00029957		 0.00022269
O		10.72512718		2.52076345		4.47122412		 0.00055102		 0.00032267		 0.00023301
O		3.40902535		2.63895351		4.47120589		-0.00054241		-0.00031848		 0.00022321
H		4.36713519		3.00446522		0.95083559		-0.00024290		-0.00004900		 0.00030274
H		9.76699210		2.15524613		0.95084681		 0.00026681		 0.00005753		 0.00031831
H		11.43435169		4.73508707		5.36700850		-0.00067613		 0.00021732		 0.00057737
H		2.69981206		0.42462988		5.36698325		 0.00066822		-0.00021276		 0.00057297
H		2.70204468		0.43223930		3.56972636		 0.00038647		-0.00064614		-0.00008515
H		11.43216956		4.72745241		3.56979508		-0.00058266		 0.00072443		-0.00021209
H		9.76932289		2.14767036		7.98586140		-0.00022958		 0.00040138		 0.00030552
H		4.36498811		3.01210689		7.98593293		-0.00018609		-0.00056788		 0.00003795
