# total energy = -22457.0845294 eV	

CRYSTAL	
PRIMVEC	
		9.05300002		0.00000000		0.00000000	
		0.00000000		7.67699834		0.00000000	
		-0.52464851		0.00000000		4.95803842	
PRIMCOORD
   40 1	
Ca		6.64561268		0.51819825		0.44671938		-0.00037902		 0.00049801		 0.00058601	
Ca		1.88274336		7.15880280		4.51132085		 0.00037902		-0.00049801		-0.00058601	
Ca		2.14506490		4.35669742		2.03230073		 0.00037902		 0.00049801		-0.00058601	
Ca		6.38329114		3.32030273		2.92574040		-0.00037902		-0.00049801		 0.00058601	
Mg		1.97928999		1.25979557		1.99908165		-0.00044948		-0.00034558		-0.00020058	
Mg		6.54906696		6.41720368		2.95895767		 0.00044948		 0.00034558		 0.00020058	
Mg		6.81138940		5.09829564		0.47993755		 0.00044948		-0.00034558		 0.00020058	
Mg		1.71696845		2.57870360		4.47810177		-0.00044948		 0.00034558		-0.00020058	
Si		4.38151984		1.27438176		2.29408543		-0.00000330		 0.00030295		-0.00003101	
Si		4.14683711		6.40261839		2.66395480		 0.00000330		-0.00030295		 0.00003101	
Si		4.40915865		5.11288183		0.18493468		 0.00000330		 0.00030295		 0.00003101	
Si		4.11919830		2.56411831		4.77310645		-0.00000330		-0.00030295		-0.00003101	
Si		0.14788438		6.55846126		1.30594776		 0.00030742		 0.00030428		 0.00043022	
Si		8.38047347		1.11853889		3.65209337		-0.00030742		-0.00030428		-0.00043022	
Si		8.64279501		2.71996118		1.17307235		-0.00030742		 0.00030428		-0.00043022	
Si		-0.11443807		4.95703896		3.78496787		 0.00030742		-0.00030428		 0.00043022	
O		3.50493414		1.29971568		0.55976329		-0.00013411		-0.00078557		-0.00076563	
O		5.02342190		6.37728357		4.39827785		 0.00013411		 0.00078557		 0.00076563	
O		5.28574434		5.13821575		1.91925773		 0.00013411		-0.00078557		 0.00076563	
O		3.24261170		2.53878440		3.03878340		-0.00013411		 0.00078557		-0.00076563	
O		3.49747718		3.70875881		0.42490437		-0.00023132		-0.00075728		-0.00036698	
O		5.03087976		3.96824133		4.53313677		 0.00023132		 0.00075728		 0.00036698	
O		5.29320220		7.54725889		2.05411575		 0.00023132		-0.00075728		 0.00036698	
O		3.23515474		0.12974126		2.90392357		-0.00023132		 0.00075728		-0.00036698	
O		5.43097891		2.25089628		1.32528406		-0.00032354		-0.00046314		 0.00039098	
O		3.09737713		5.42610387		3.63275616		 0.00032354		 0.00046314		-0.00039098	
O		3.35969867		6.08939726		1.15373605		 0.00032354		-0.00046314		-0.00039098	
O		5.16865737		1.58760379		3.80430508		-0.00032354		 0.00046314		 0.00039098	
O		1.17630971		2.69923343		1.07490343		 0.00020027		 0.00032710		-0.00048724	
O		7.35204724		4.97776671		3.88313680		-0.00020027		-0.00032710		 0.00048724	
O		7.61436878		6.53773260		1.40411668		-0.00020027		 0.00032710		 0.00048724	
O		0.91398817		1.13926664		3.55392264		 0.00020027		-0.00032710		-0.00048724	
O		0.85195973		0.22186459		0.98317934		 0.00003022		-0.00009906		-0.00029457	
O		7.67639631		7.45513465		3.97486089		-0.00003022		 0.00009906		 0.00029457	
O		7.93871785		4.06036557		1.49584077		-0.00003022		-0.00009906		 0.00029457	
O		0.58963819		3.61663458		3.46220036		 0.00003022		 0.00009906		-0.00029457	
O		0.94307183		5.44299314		0.34458434		-0.00012217		 0.00053921		 0.00000884	
O		7.58528420		2.23400700		4.61345679		 0.00012217		-0.00053921		-0.00000884	
O		7.84760574		1.60449307		2.13443577		 0.00012217		 0.00053921		-0.00000884	
O		0.68075029		6.07250708		2.82360445		-0.00012217		-0.00053921		 0.00000884	
