# total energy = -22450.2573315 eV	

CRYSTAL	
PRIMVEC	
		9.05300002		0.00000000		0.00000000	
		0.00000000		7.67699834		0.00000000	
		-0.52464851		0.00000000		4.60389411	
PRIMCOORD
   40 1	
Ca		6.64561268		0.51819825		0.41481118		 0.00011566		-0.00014290		-0.00013421	
Ca		1.88274336		7.15880280		4.18908384		-0.00011566		 0.00014290		 0.00013421	
Ca		2.14506490		4.35669742		1.88713678		-0.00011566		-0.00014290		 0.00013421	
Ca		6.38329114		3.32030273		2.71675823		 0.00011566		 0.00014290		-0.00013421	
Mg		1.97928999		1.25979557		1.85628959		 0.00000948		 0.00010280		-0.00000080	
Mg		6.54906696		6.41720368		2.74760361		-0.00000948		-0.00010280		 0.00000080	
Mg		6.81138940		5.09829564		0.44565656		-0.00000948		 0.00010280		 0.00000080	
Mg		1.71696845		2.57870360		4.15823845		 0.00000948		-0.00010280		-0.00000080	
Si		4.38151984		1.27438176		2.13022160		 0.00020142		-0.00000793		-0.00008524	
Si		4.14683711		6.40261839		2.47367341		-0.00020142		 0.00000793		 0.00008524	
Si		4.40915865		5.11288183		0.17172545		-0.00020142		-0.00000793		 0.00008524	
Si		4.11919830		2.56411831		4.43216956		 0.00020142		 0.00000793		-0.00008524	
Si		0.14788438		6.55846126		1.21266565		 0.00009382		-0.00012719		 0.00009552	
Si		8.38047347		1.11853889		3.39122937		-0.00009382		 0.00012719		-0.00009552	
Si		8.64279501		2.71996118		1.08928231		-0.00009382		-0.00012719		-0.00009552	
Si		-0.11443807		4.95703896		3.51461270		 0.00009382		 0.00012719		 0.00009552	
O		3.50493414		1.29971568		0.51977981		 0.00018173		 0.00006780		 0.00002125	
O		5.02342190		6.37728357		4.08411521		-0.00018173		-0.00006780		-0.00002125	
O		5.28574434		5.13821575		1.78216815		-0.00018173		 0.00006780		-0.00002125	
O		3.24261170		2.53878440		2.82172686		 0.00018173		-0.00006780		 0.00002125	
O		3.49747718		3.70875881		0.39455418		-0.00010699		 0.00006902		-0.00012251	
O		5.03087976		3.96824133		4.20934083		 0.00010699		-0.00006902		 0.00012251	
O		5.29320220		7.54725889		1.90739378		 0.00010699		 0.00006902		 0.00012251	
O		3.23515474		0.12974126		2.69650124		-0.00010699		-0.00006902		-0.00012251	
O		5.43097891		2.25089628		1.23062137		 0.00003524		 0.00018586		-0.00004042	
O		3.09737713		5.42610387		3.37327364		-0.00003524		-0.00018586		 0.00004042	
O		3.35969867		6.08939726		1.07132569		-0.00003524		 0.00018586		 0.00004042	
O		5.16865737		1.58760379		3.53256842		 0.00003524		-0.00018586		-0.00004042	
O		1.17630971		2.69923343		0.99812403		-0.00006485		 0.00001887		-0.00018394	
O		7.35204724		4.97776671		3.60577008		 0.00006485		-0.00001887		 0.00018394	
O		7.61436878		6.53773260		1.30382302		 0.00006485		 0.00001887		 0.00018394	
O		0.91398817		1.13926664		3.30007199		-0.00006485		-0.00001887		-0.00018394	
O		0.85195973		0.22186459		0.91295160		-0.00008985		 0.00025171		 0.00000985	
O		7.67639631		7.45513465		3.69094161		 0.00008985		-0.00025171		-0.00000985	
O		7.93871785		4.06036557		1.38899455		 0.00008985		 0.00025171		-0.00000985	
O		0.58963819		3.61663458		3.21489956		-0.00008985		-0.00025171		 0.00000985	
O		0.94307183		5.44299314		0.31997104		 0.00017739		-0.00009243		-0.00010535	
O		7.58528420		2.23400700		4.28392397		-0.00017739		 0.00009243		 0.00010535	
O		7.84760574		1.60449307		1.98197692		-0.00017739		-0.00009243		 0.00010535	
O		0.68075029		6.07250708		2.62191810		 0.00017739		 0.00009243		-0.00010535	
