# total energy = -22455.3488847 eV	

CRYSTAL	
PRIMVEC	
		9.05300002		0.00000000		0.00000000	
		0.00000000		7.67699834		0.00000000	
		-0.52464851		0.00000000		4.83999635	
PRIMCOORD
   40 1	
Ca		6.64561268		0.51819825		0.43608301		-0.00016133		 0.00005109		 0.00051350	
Ca		1.88274336		7.15880280		4.40390881		 0.00016133		-0.00005109		-0.00051350	
Ca		2.14506490		4.35669742		1.98391335		 0.00016133		 0.00005109		-0.00051350	
Ca		6.38329114		3.32030273		2.85607937		-0.00016133		-0.00005109		 0.00051350	
Mg		1.97928999		1.25979557		1.95148460		-0.00055177		-0.00009509		 0.00022576	
Mg		6.54906696		6.41720368		2.88850722		 0.00055177		 0.00009509		-0.00022576	
Mg		6.81138940		5.09829564		0.46851086		 0.00055177		-0.00009509		-0.00022576	
Mg		1.71696845		2.57870360		4.37148097		-0.00055177		 0.00009509		 0.00022576	
Si		4.38151984		1.27438176		2.23946415		-0.00022962		 0.00014459		 0.00005193	
Si		4.14683711		6.40261839		2.60052767		 0.00022962		-0.00014459		-0.00005193	
Si		4.40915865		5.11288183		0.18053221		 0.00022962		 0.00014459		-0.00005193	
Si		4.11919830		2.56411831		4.65945961		-0.00022962		-0.00014459		 0.00005193	
Si		0.14788438		6.55846126		1.27485433		-0.00001837		 0.00037534		 0.00003529	
Si		8.38047347		1.11853889		3.56513840		 0.00001837		-0.00037534		-0.00003529	
Si		8.64279501		2.71996118		1.14514204		 0.00001837		 0.00037534		-0.00003529	
Si		-0.11443807		4.95703896		3.69484979		-0.00001837		-0.00037534		 0.00003529	
O		3.50493414		1.29971568		0.54643455		-0.00006319		-0.00063446		-0.00057243	
O		5.02342190		6.37728357		4.29355727		 0.00006319		 0.00063446		 0.00057243	
O		5.28574434		5.13821575		1.87356090		 0.00006319		-0.00063446		 0.00057243	
O		3.24261170		2.53878440		2.96643092		-0.00006319		 0.00063446		-0.00057243	
O		3.49747718		3.70875881		0.41478673		-0.00018143		-0.00041089		-0.00020776	
O		5.03087976		3.96824133		4.42520509		 0.00018143		 0.00041089		 0.00020776	
O		5.29320220		7.54725889		2.00520872		 0.00018143		-0.00041089		 0.00020776	
O		3.23515474		0.12974126		2.83478310		-0.00018143		 0.00041089		-0.00020776	
O		5.43097891		2.25089628		1.29372983		-0.00003504		-0.00014677		 0.00026911	
O		3.09737713		5.42610387		3.54626199		 0.00003504		 0.00014677		-0.00026911	
O		3.35969867		6.08939726		1.12626563		 0.00003504		-0.00014677		-0.00026911	
O		5.16865737		1.58760379		3.71372620		-0.00003504		 0.00014677		 0.00026911	
O		1.17630971		2.69923343		1.04930969		-0.00051695		 0.00007700		 0.00038710	
O		7.35204724		4.97776671		3.79068213		 0.00051695		-0.00007700		-0.00038710	
O		7.61436878		6.53773260		1.37068576		 0.00051695		 0.00007700		-0.00038710	
O		0.91398817		1.13926664		3.46930606		-0.00051695		-0.00007700		 0.00038710	
O		0.85195973		0.22186459		0.95977009		-0.00010462		-0.00061567		 0.00027858	
O		7.67639631		7.45513465		3.88022173		 0.00010462		 0.00061567		-0.00027858	
O		7.93871785		4.06036557		1.46022627		 0.00010462		-0.00061567		-0.00027858	
O		0.58963819		3.61663458		3.37976646		-0.00010462		 0.00061567		 0.00027858	
O		0.94307183		5.44299314		0.33637870		 0.00003743		 0.00038253		-0.00010263	
O		7.58528420		2.23400700		4.50361312		-0.00003743		-0.00038253		 0.00010263	
O		7.84760574		1.60449307		2.08361676		-0.00003743		 0.00038253		 0.00010263	
O		0.68075029		6.07250708		2.75637506		 0.00003743		-0.00038253		-0.00010263	
