# total energy = -41275.3175032 eV

CRYSTAL
PRIMVEC
		5.68874634		0.00000000		0.00000000
		0.00000000		11.40535491		0.00000000
		0.00000000		0.00000000		8.20751017
PRIMECORD
   56 1
Mg		0.00000000		0.00000000		0.00000000		-0.00000001		 0.00000002		-0.00000002
Mg		0.00000000		5.70267803		0.00000000		-0.00000000		0.00000000		-0.00000004
Mg		2.84437431		5.70267803		4.10375394		-0.00000002		 0.00000002		 0.00000005
Mg		2.84437431		0.00000000		4.10375394		 0.00000004		 0.00000003		0.00000000
Mg		0.00000000		2.85133930		7.97261551		-0.00000001		 0.00000004		 0.00044543
Mg		0.00000000		8.55401733		0.23489181		 0.00000001		-0.00000000		-0.00044536
Mg		2.84437431		8.55401733		3.86886156		-0.00000001		 0.00000001		 0.00044546
Mg		2.84437431		2.85133930		4.33864576		 0.00000002		 0.00000002		-0.00044544
Mg		1.42218744		1.45806421		2.05187697		-0.00000001		-0.00058769		 0.00000001
Mg		4.26656175		9.94729242		6.15563092		 0.00000002		 0.00058765		-0.00000003
Mg		4.26656175		4.24461439		2.05187697		 0.00000002		 0.00058770		-0.00000001
Mg		1.42218744		7.16074223		6.15563092		-0.00000003		-0.00058778		-0.00000003
Mg		4.26656175		7.16074223		6.15563092		 0.00000001		-0.00058771		-0.00000001
Mg		1.42218744		4.24461439		2.05187697		-0.00000001		 0.00058770		-0.00000000
Mg		1.42218744		9.94729242		6.15563092		-0.00000002		 0.00058770		-0.00000001
Mg		4.26656175		1.45806421		2.05187697		 0.00000001		-0.00058769		 0.00000002
Si		0.00000000		1.36507497		5.06190570		 0.00000009		 0.00071827		 0.00075530
Si		0.00000000		10.04028165		3.14560219		-0.00000003		-0.00071836		-0.00075547
Si		0.00000000		4.33760363		5.06190570		-0.00000002		-0.00071822		 0.00075542
Si		0.00000000		7.06775300		3.14560219		-0.00000009		 0.00071825		-0.00075546
Si		2.84437431		7.06775300		0.95815176		 0.00000009		 0.00071828		 0.00075540
Si		2.84437431		4.33760306		7.24935556		-0.00000005		-0.00071822		-0.00075531
Si		2.84437431		10.04028165		0.95815176		 0.00000001		-0.00071821		 0.00075550
Si		2.84437431		1.36507497		7.24935613		-0.00000009		 0.00071823		-0.00075545
O		0.00000000		2.85133930		1.79580074		 0.00000007		-0.00000004		 0.00018982
O		0.00000000		8.55401733		6.41170715		-0.00000001		0.00000000		-0.00018981
O		2.84437431		8.55401733		5.89955469		 0.00000004		 0.00000009		 0.00018974
O		2.84437431		2.85133930		2.30795320		-0.00000002		-0.00000001		-0.00018988
O		0.00000000		2.85133930		5.89936837		 0.00000002		 0.00000003		 0.00039078
O		0.00000000		8.55401733		2.30813952		-0.00000002		 0.00000005		-0.00039068
O		2.84437431		8.55401733		1.79561442		-0.00000002		 0.00000002		 0.00039063
O		2.84437431		2.85133930		6.41189347		 0.00000001		-0.00000004		-0.00039076
O		0.00000000		11.30126864		2.09042259		 0.00000004		-0.00024043		-0.00017965
O		0.00000000		0.10408798		6.11708473		 0.00000001		 0.00024048		 0.00017974
O		0.00000000		5.80676601		2.09042259		-0.00000006		 0.00024046		-0.00017958
O		0.00000000		5.59859061		6.11708473		-0.00000002		-0.00024052		 0.00017968
O		2.84437431		5.59859004		6.19417653		 0.00000008		-0.00024039		-0.00017971
O		2.84437431		5.80676601		2.01333135		0.00000000		 0.00024045		 0.00017960
O		2.84437431		0.10408798		6.19417653		-0.00000006		 0.00024049		-0.00017957
O		2.84437431		11.30126864		2.01333135		-0.00000000		-0.00024050		 0.00017957
O		1.47987880		1.40268159		8.15464598		-0.00021771		-0.00011114		-0.00070685
O		4.20887038		10.00267503		0.05286191		 0.00021782		 0.00011111		 0.00070680
O		4.20887038		4.29999644		8.15464598		 0.00021772		 0.00011116		-0.00070678
O		1.47987880		7.10535962		0.05286191		-0.00021783		-0.00011113		 0.00070680
O		4.20887038		7.10535962		0.05286191		 0.00021780		-0.00011115		 0.00070682
O		1.47987880		4.29999644		8.15464598		-0.00021776		 0.00011115		-0.00070682
O		1.47987880		10.00267503		0.05286191		-0.00021776		 0.00011111		 0.00070676
O		4.20887038		1.40268159		8.15464598		 0.00021776		-0.00011116		-0.00070676
O		4.32425311		7.10535962		4.05089203		-0.00021780		-0.00011120		-0.00070684
O		1.36449550		4.29999644		4.15661586		 0.00021784		 0.00011118		 0.00070680
O		1.36449550		10.00267446		4.05089203		 0.00021787		 0.00011118		-0.00070674
O		4.32425311		1.40268159		4.15661586		-0.00021775		-0.00011119		 0.00070680
O		1.36449550		1.40268159		4.15661586		 0.00021773		-0.00011119		 0.00070686
O		4.32425311		10.00267503		4.05089203		-0.00021789		 0.00011112		-0.00070678
O		4.32425311		4.29999644		4.15661586		-0.00021781		 0.00011119		 0.00070678
O		1.36449607		7.10535962		4.05089203		 0.00021783		-0.00011117		-0.00070673
