# total energy = -41275.4597832 eV	

CRYSTAL	
PRIMVEC	
		5.69829968		0.00000000		0.00000000	
		0.00000000		11.43799751		0.00000000	
		0.00000000		0.00000000		8.25659691	
PRIMCOORD
   56 1	
Mg		0.00000000		0.00000000		0.00000000		0.00000000		0.00000000		0.00000000	
Mg		0.00000000		5.71899990		0.00000000		0.00000000		0.00000000		0.00000000	
Mg		2.84914984		5.71899990		4.12829960		0.00000000		0.00000000		0.00000000	
Mg		2.84914984		0.00000000		4.12829960		0.00000000		0.00000000		0.00000000	
Mg		0.00000000		2.85949966		8.00972777		0.00000000		 0.00000001		 0.00064255	
Mg		0.00000000		8.57849956		0.24687200		0.00000000		-0.00000001		-0.00064255	
Mg		2.84914984		8.57849956		3.88142760		0.00000000		-0.00000001		 0.00064253	
Mg		2.84914984		2.85949966		4.37517273		0.00000000		 0.00000001		-0.00064253	
Mg		1.42457492		1.45948897		2.06414980		-0.00000001		-0.00039056		-0.00000000	
Mg		4.27372476		9.97851025		6.19244939		 0.00000001		 0.00039056		0.00000000	
Mg		4.27372476		4.25951092		2.06414980		 0.00000001		 0.00039057		-0.00000002	
Mg		1.42457492		7.17848887		6.19244939		-0.00000001		-0.00039057		 0.00000002	
Mg		4.27372476		7.17848887		6.19244939		 0.00000001		-0.00039057		 0.00000002	
Mg		1.42457492		4.25951092		2.06414980		-0.00000001		 0.00039057		-0.00000002	
Mg		1.42457492		9.97851025		6.19244939		-0.00000001		 0.00039056		0.00000000	
Mg		4.27372476		1.45948897		2.06414980		 0.00000001		-0.00039056		-0.00000000	
Si		0.00000000		1.37027183		5.09267072		0.00000000		 0.00039252		 0.00025997	
Si		0.00000000		10.06772739		3.16392904		0.00000000		-0.00039252		-0.00025997	
Si		0.00000000		4.34872692		5.09267072		0.00000000		-0.00039250		 0.00025996	
Si		0.00000000		7.08927173		3.16392904		0.00000000		 0.00039250		-0.00025996	
Si		2.84914984		7.08927173		0.96437112		0.00000000		 0.00039259		 0.00025987	
Si		2.84914984		4.34872692		7.29222864		0.00000000		-0.00039259		-0.00025987	
Si		2.84914984		10.06772739		0.96437112		-0.00000000		-0.00039258		 0.00025990	
Si		2.84914984		1.37027183		7.29222864		-0.00000000		 0.00039258		-0.00025990	
O		0.00000000		2.85949966		1.78838002		-0.00000000		-0.00000000		 0.00030657	
O		0.00000000		8.57849956		6.46822089		-0.00000000		0.00000000		-0.00030657	
O		2.84914984		8.57849956		5.91667961		0.00000000		-0.00000001		 0.00030661	
O		2.84914984		2.85949966		2.33992072		0.00000000		 0.00000001		-0.00030661	
O		0.00000000		2.85949966		5.91502881		0.00000000		-0.00000001		 0.00015756	
O		0.00000000		8.57849956		2.34157209		0.00000000		 0.00000001		-0.00015756	
O		2.84914984		8.57849956		1.78672865		0.00000000		 0.00000002		 0.00015759	
O		2.84914984		2.85949966		6.46987168		0.00000000		-0.00000002		-0.00015759	
O		0.00000000		11.32361953		2.11203774		-0.00000000		-0.00022973		 0.00012685	
O		0.00000000		0.11438026		6.14456145		-0.00000000		 0.00022973		-0.00012685	
O		0.00000000		5.83337959		2.11203774		0.00000000		 0.00022972		 0.00012682	
O		0.00000000		5.60461964		6.14456145		0.00000000		-0.00022972		-0.00012682	
O		2.84914984		5.60461964		6.24033847		-0.00000000		-0.00022960		 0.00012673	
O		2.84914984		5.83337959		2.01626186		-0.00000000		 0.00022960		-0.00012673	
O		2.84914984		0.11438026		6.24033847		0.00000000		 0.00022967		 0.00012674	
O		2.84914984		11.32361953		2.01626186		0.00000000		-0.00022967		-0.00012674	
O		1.49010480		1.40115491		8.19467577		 0.00005364		-0.00003818		-0.00020301	
O		4.20819375		10.03684431		0.06192399		-0.00005364		 0.00003818		 0.00020301	
O		4.20819375		4.31784499		8.19467577		-0.00005361		 0.00003819		-0.00020298	
O		1.49010480		7.12015481		0.06192399		 0.00005361		-0.00003819		 0.00020298	
O		4.20819375		7.12015481		0.06192399		-0.00005361		-0.00003819		 0.00020298	
O		1.49010480		4.31784499		8.19467577		 0.00005361		 0.00003819		-0.00020298	
O		1.49010480		10.03684431		0.06192399		 0.00005364		 0.00003818		 0.00020301	
O		4.20819375		1.40115491		8.19467577		-0.00005364		-0.00003818		-0.00020301	
O		4.33925464		7.12015481		4.06637560		 0.00005355		-0.00003817		-0.00020298	
O		1.35904504		4.31784499		4.19022473		-0.00005355		 0.00003817		 0.00020298	
O		1.35904504		10.03684431		4.06637560		-0.00005355		 0.00003816		-0.00020297	
O		4.33925464		1.40115491		4.19022473		 0.00005355		-0.00003816		 0.00020297	
O		1.35904504		1.40115491		4.19022473		-0.00005355		-0.00003816		 0.00020297	
O		4.33925464		10.03684431		4.06637560		 0.00005355		 0.00003816		-0.00020297	
O		4.33925464		4.31784499		4.19022473		 0.00005355		 0.00003817		 0.00020298	
O		1.35904504		7.12015481		4.06637560		-0.00005355		-0.00003817		-0.00020298	
