# total energy = -9140.14595734 eV	

CRYSTAL	
PRIMVEC	
		5.33299824		-0.42663879		0.00000000	
		-3.03598078		4.83183342		0.00000000	
		0.00000000		0.00000000		7.32399888	
PRIMCOORD
   14 1	
Mg		1.77428878		-0.14194293		3.33974364		 0.00002596		 0.00019775		 0.00011089	
Mg		-1.01007115		1.60755110		3.33974364		-0.00016712		 0.00013861		 0.00023620	
Mg		1.53280090		2.93958593		3.33974364		 0.00054795		-0.00044151		 0.00035602	
Si		-0.24632110		3.07900900		0.56394805		 0.00062995		-0.00026361		-0.00015091	
Si		2.54333964		1.32618510		0.56394805		-0.00018576		 0.00025193		 0.00008292	
O		-0.24632110		3.07900900		2.13714281		-0.00000418		-0.00024051		-0.00044649	
O		2.54333964		1.32618510		2.13714281		 0.00027143		-0.00023011		-0.00037322	
O		2.67183311		-0.21374686		7.27273160		-0.00048035		 0.00020487		-0.00019941	
O		-1.52102707		2.42074887		7.27273160		 0.00006660		 0.00013223		 0.00012902	
O		1.14621303		2.19819210		7.27273160		-0.00000210		-0.00060186		 0.00022815	
O		3.53044575		-0.28243600		4.33580785		-0.00039800		 0.00036415		 0.00014153	
O		-2.00981993		3.19867383		4.33580785		-0.00026701		 0.00020684		-0.00004463	
O		0.77639218		1.48895466		4.33580785		-0.00075882		 0.00040449		 0.00012302	
O		0.00000000		0.00000000		2.21917173		 0.00072141		-0.00012327		-0.00019308	
