# total energy = -20635.0477735 eV

CRYSTAL
PRIMVEC
		10.04999687		-0.80399773		0.00000000
		-0.45999620		5.74999781		0.00000000
		0.00000000		0.00000000		4.87000114
PRIMECORD
   28 1
Si		3.34665002		-0.26773240		4.37666846		-0.00029365		 0.00022953		-0.00045941
Si		6.70334988		-0.53626835		0.49333067		 0.00029365		-0.00022953		 0.00045941
Si		8.14164935		2.20526763		4.37666846		-0.00028968		 0.00020748		-0.00045624
Si		1.44835032		2.74073143		0.49333067		 0.00028968		-0.00020748		 0.00045624
Mg		0.00000000		0.00000000		0.00000000		0.00000000		0.00000000		0.00000000
Mg		4.79500034		2.47300004		0.00000000		0.00000000		0.00000000		0.00000000
Mg		5.02499944		-0.40199987		2.43499956		0.00000000		0.00000000		0.00000000
Mg		-0.23000011		2.87499991		2.43499956		0.00000000		0.00000000		0.00000000
Mg		2.39750017		1.23650002		2.43499956		-0.00000575		 0.00001853		 0.00001122
Mg		7.19249950		3.70950006		2.43499956		 0.00000575		-0.00001853		-0.00001122
Mg		7.42249961		0.83450014		2.43499956		 0.00000602		-0.00001641		-0.00000683
Mg		2.16750005		4.11149993		2.43499956		-0.00000602		 0.00001641		 0.00000683
O		8.23496934		-0.65879823		1.08113977		 0.00042806		 0.00090506		-0.00012407
O		1.81502955		-0.14520152		3.78886036		-0.00042806		-0.00090506		 0.00012407
O		2.97996978		2.61820155		1.08113977		 0.00042841		 0.00092607		-0.00011914
O		6.61002988		2.32779751		3.78886036		-0.00042841		-0.00092607		 0.00011914
O		3.35770505		-0.26861560		1.14591127		 0.00067294		-0.00028510		-0.00033049
O		6.69229485		-0.53538415		3.72408887		-0.00067294		 0.00028510		 0.00033049
O		8.15270438		2.20438343		1.14591127		 0.00067027		-0.00029466		-0.00033698
O		1.43729529		2.74161563		3.72408887		-0.00067027		 0.00029466		 0.00033698
O		0.78820209		1.48122203		1.09721065		-0.00021464		-0.00045247		-0.00014794
O		8.80179757		3.46477805		3.77278848		 0.00021464		 0.00045247		 0.00014794
O		9.01312159		0.82322835		3.77278848		-0.00045622		 0.00017495		 0.00008736
O		0.57687808		4.12277173		1.09721065		 0.00045622		-0.00017495		-0.00008736
O		5.58320142		3.95422206		1.09721065		-0.00020431		-0.00047548		-0.00014256
O		4.00679824		0.99177801		3.77278848		 0.00020431		 0.00047548		 0.00014256
O		3.75812203		4.10022813		3.77278848		-0.00046327		 0.00019455		 0.00009099
O		5.83187763		0.84577194		1.09721065		 0.00046327		-0.00019455		-0.00009099
