# total energy = -35726.5273612 eV

CRYSTAL
PRIMVEC
		7.96902337		0.00000786		-0.00001572
		-3.98450382		6.90132742		0.00000786
		-0.00001572		0.00000786		9.85426909
PRIMECORD
   46 1
Mg		1.30675517		3.27194879		3.70593244		 0.00025435		-0.00024888		-0.00010477
Mg		0.49756483		6.39702395		3.70595288		 0.00008346		 0.00034869		-0.00010088
Mg		-1.80433494		4.13373004		3.70598982		-0.00034323		-0.00010522		-0.00009891
Mg		2.67774393		3.62942815		8.63308743		-0.00026092		 0.00024592		-0.00009875
Mg		3.48693899		0.50432469		8.63306542		-0.00008414		-0.00034770		-0.00010043
Mg		5.78879710		2.76762803		8.63308035		 0.00034304		 0.00010084		-0.00010183
Mg		0.67525634		1.71720509		1.12872332		 0.00024500		 0.00039250		-0.00019741
Mg		2.15976197		6.62751073		1.12874375		-0.00045836		 0.00001856		-0.00019655
Mg		-2.83497587		5.45789971		1.12874297		 0.00021544		-0.00040861		-0.00019925
Mg		3.30921840		5.18411840		6.05585786		-0.00024227		-0.00038776		-0.00019708
Mg		1.82477565		0.27383005		6.05585708		 0.00045603		-0.00001779		-0.00019733
Mg		6.81950327		1.44338998		6.05587594		-0.00021894		 0.00040942		-0.00019899
Mg		0.00002358		4.60092739		1.01425613		-0.00000072		-0.00000599		 0.00010262
Mg		3.98450068		2.30042675		5.94138910		 0.00000363		-0.00000324		 0.00010209
Si		3.98448810		2.30044562		1.60809784		-0.00000390		 0.00000433		-0.00008897
Si		0.00000000		4.60091167		6.53524182		-0.00000260		 0.00000551		-0.00009181
Si		-0.00000943		0.00000000		3.91498026		 0.00000096		 0.00000181		 0.00014207
Si		0.00000000		0.00000000		8.84211795		-0.00000020		 0.00000227		 0.00013810
O		1.48808836		0.18430909		9.56538971		-0.00045583		-0.00006644		-0.00043714
O		7.06536480		1.19658286		9.56539521		 0.00028533		-0.00036309		-0.00043823
O		3.40009368		5.52046377		9.56541565		 0.00016964		 0.00042562		-0.00043832
O		2.49642097		6.71703326		4.63826224		 0.00045410		 0.00006746		-0.00043969
O		-3.08086412		5.70477207		4.63829761		-0.00028184		 0.00035895		-0.00043875
O		0.58441800		1.38088802		4.63826617		-0.00017205		-0.00042925		-0.00043906
O		3.47894507		0.61817799		4.99107887		-0.00043198		-0.00011045		 0.00021882
O		5.69417010		2.70377096		4.99111974		 0.00031376		-0.00031939		 0.00022118
O		2.78042932		3.57937376		4.99104507		 0.00012074		 0.00043145		 0.00022292
O		0.50556740		6.28319030		9.91822599		 0.00043488		 0.00011182		 0.00022178
O		-1.70962698		4.19759969		9.91818197		-0.00031372		 0.00031961		 0.00021969
O		1.20408866		3.32196231		9.91823778		-0.00011950		-0.00042844		 0.00022131
O		2.41703037		2.22174044		2.16386112		 0.00042143		-0.00013079		-0.00014707
O		4.83635123		0.98232209		2.16385483		-0.00009286		 0.00042595		-0.00014700
O		4.70007014		3.69722716		2.16390592		-0.00032629		-0.00029975		-0.00014705
O		1.56743101		4.67961213		7.09105147		-0.00041293		 0.00013098		-0.00014697
O		-0.85189064		5.91901948		7.09101767		 0.00009759		-0.00043387		-0.00014898
O		-0.71559854		3.20411598		7.09099645		 0.00032084		 0.00029324		-0.00014604
O		-0.34147657		3.10573411		2.47038058		-0.00011876		-0.00022062		 0.00025139
O		1.46566607		5.05281366		2.47034914		 0.00025134		 0.00000586		 0.00025291
O		-1.12415491		5.64409842		2.47033578		-0.00013145		 0.00021844		 0.00025593
O		4.32591044		3.79560903		7.39746953		 0.00012146		 0.00022245		 0.00025643
O		2.51887549		1.84855777		7.39748054		-0.00025257		-0.00000306		 0.00025140
O		5.10867760		1.25716376		7.39748761		 0.00013424		-0.00021345		 0.00025246
O		3.98450147		2.30046055		-0.04361287		 0.00000205		 0.00000169		 0.00054712
O		0.00002751		4.60091167		4.88353032		-0.00000241		 0.00000030		 0.00054862
O		0.00001808		0.00000865		2.26359417		-0.00000264		-0.00000036		 0.00053073
O		-0.00002122		-0.00001022		7.19073186		 0.00000083		 0.00000049		 0.00052970
