# total energy = -18275.0464292 eV

CRYSTAL
PRIMVEC
		5.33600010		0.00000000		0.00000000
		-2.66800005		4.62110949		0.00000000
		0.00000000		0.00000000		14.24865170
PRIMECORD
   28 1
Mg		1.77155203		0.00000000		3.11760502		-0.00011523		0.00000000		 0.00001778
Mg		-0.88577602		1.53420888		3.11760502		 0.00005762		-0.00009979		 0.00001778
Mg		1.78222403		3.08690220		3.11760502		 0.00005762		 0.00009979		 0.00001778
Mg		3.56444807		0.00000000		10.24193033		 0.00011523		0.00000000		 0.00001778
Mg		-1.78222403		3.08690220		10.24193033		-0.00005762		 0.00009979		 0.00001778
Mg		0.88577602		1.53420888		10.24193033		-0.00005762		-0.00009979		 0.00001778
Si		0.00000000		3.08074126		0.41606127		0.00000000		0.00000000		-0.00074882
Si		2.66800005		1.54036983		7.54038605		0.00000000		0.00000000		-0.00074882
Si		0.00000000		3.08074126		7.54038605		-0.00000000		-0.00000000		-0.00074882
Si		2.66800005		1.54037090		0.41606127		0.00000000		-0.00000000		-0.00074882
O		0.00000000		3.08074126		2.00336015		-0.00000000		-0.00000000		 0.00075440
O		2.66800005		1.54036983		9.12768493		0.00000000		0.00000000		 0.00075440
O		0.00000000		3.08074126		9.12768493		0.00000000		0.00000000		 0.00075440
O		2.66800005		1.54037090		2.00336015		0.00000000		-0.00000000		 0.00075440
O		2.63598405		0.00000000		14.12041215		 0.00015832		0.00000000		 0.00003929
O		-1.31799202		2.28282889		14.12041215		-0.00007916		 0.00013711		 0.00003929
O		1.35000803		2.33828327		14.12041215		-0.00007916		-0.00013711		 0.00003929
O		2.70001605		0.00000000		6.99608736		-0.00015832		0.00000000		 0.00003929
O		-1.35000803		2.33828327		6.99608736		 0.00007916		-0.00013711		 0.00003929
O		1.31799202		2.28282889		6.99608736		 0.00007916		 0.00013711		 0.00003929
O		3.55733305		0.00000000		4.07368924		 0.00055574		0.00000000		 0.00010969
O		-1.77866706		3.08074126		4.07368924		-0.00027787		 0.00048128		 0.00010969
O		0.88933299		1.54036983		4.07368924		-0.00027787		-0.00048128		 0.00010969
O		1.77866706		0.00000000		11.19801402		-0.00055574		0.00000000		 0.00010969
O		-0.88933299		1.54036983		11.19801402		 0.00027787		-0.00048128		 0.00010969
O		1.77866706		3.08074126		11.19801402		 0.00027787		 0.00048128		 0.00010969
O		0.00000000		0.00000000		2.05180623		-0.00000000		-0.00000000		-0.00051144
O		0.00000000		0.00000000		9.17613101		0.00000000		0.00000000		-0.00051144
