# total energy = -18274.8216795 eV

CRYSTAL
PRIMVEC
		5.33600010		0.00000000		0.00000000
		-2.66800005		4.62110949		0.00000000
		0.00000000		0.00000000		14.97935288
PRIMECORD
   28 1
Mg		1.77155203		0.00000000		3.27748225		-0.00015059		0.00000000		-0.00047398
Mg		-0.88577602		1.53420888		3.27748225		 0.00007530		-0.00013041		-0.00047398
Mg		1.78222403		3.08690220		3.27748225		 0.00007530		 0.00013041		-0.00047398
Mg		3.56444807		0.00000000		10.76715709		 0.00015059		-0.00000000		-0.00047398
Mg		-1.78222403		3.08690220		10.76715709		-0.00007530		 0.00013041		-0.00047398
Mg		0.88577602		1.53420888		10.76715709		-0.00007530		-0.00013041		-0.00047398
Si		0.00000000		3.08074126		0.43739726		0.00000000		0.00000000		-0.00008314
Si		2.66800005		1.54036983		7.92707211		0.00000000		-0.00000000		-0.00008314
Si		0.00000000		3.08074126		7.92707211		0.00000000		-0.00000000		-0.00008314
Si		2.66800005		1.54037090		0.43739726		0.00000000		0.00000000		-0.00008314
O		0.00000000		3.08074126		2.10609683		0.00000000		0.00000000		-0.00045543
O		2.66800005		1.54036983		9.59577114		0.00000000		0.00000000		-0.00045543
O		0.00000000		3.08074126		9.59577114		0.00000000		0.00000000		-0.00045543
O		2.66800005		1.54037090		2.10609683		0.00000000		0.00000000		-0.00045543
O		2.63598405		0.00000000		14.84453617		 0.00010585		-0.00000000		 0.00052372
O		-1.31799202		2.28282889		14.84453617		-0.00005292		 0.00009167		 0.00052372
O		1.35000803		2.33828327		14.84453617		-0.00005292		-0.00009167		 0.00052372
O		2.70001605		0.00000000		7.35486133		-0.00010585		0.00000000		 0.00052372
O		-1.35000803		2.33828327		7.35486133		 0.00005292		-0.00009167		 0.00052372
O		1.31799202		2.28282889		7.35486133		 0.00005292		 0.00009167		 0.00052372
O		3.55733305		0.00000000		4.28259631		-0.00007752		-0.00000000		 0.00003885
O		-1.77866706		3.08074126		4.28259631		 0.00003876		-0.00006713		 0.00003885
O		0.88933299		1.54036983		4.28259631		 0.00003876		 0.00006713		 0.00003885
O		1.77866706		0.00000000		11.77227115		 0.00007752		0.00000000		 0.00003885
O		-0.88933299		1.54036983		11.77227115		-0.00003876		 0.00006713		 0.00003885
O		1.77866706		3.08074126		11.77227115		-0.00003876		-0.00006713		 0.00003885
O		0.00000000		0.00000000		2.15702628		0.00000000		0.00000000		 0.00081136
O		0.00000000		0.00000000		9.64670219		-0.00000000		-0.00000000		 0.00081136
