# total energy = -18275.3867506 eV

CRYSTAL
PRIMVEC
		5.33600010		0.00000000		0.00000000
		-2.66800005		4.62110949		0.00000000
		0.00000000		0.00000000		13.15259993
PRIMECORD
   28 1
Mg		1.77155203		0.00000000		2.87778916		-0.00012720		-0.00000000		 0.00050802
Mg		-0.88577602		1.53420888		2.87778916		 0.00006360		-0.00011015		 0.00050802
Mg		1.78222403		3.08690220		2.87778916		 0.00006360		 0.00011015		 0.00050802
Mg		3.56444807		0.00000000		9.45408913		 0.00012720		0.00000000		 0.00050802
Mg		-1.78222403		3.08690220		9.45408913		-0.00006360		 0.00011015		 0.00050802
Mg		0.88577602		1.53420888		9.45408913		-0.00006360		-0.00011015		 0.00050802
Si		0.00000000		3.08074126		0.38405594		0.00000000		0.00000000		 0.00031113
Si		2.66800005		1.54036983		6.96035590		-0.00000000		0.00000000		 0.00031113
Si		0.00000000		3.08074126		6.96035590		-0.00000000		-0.00000000		 0.00031113
Si		2.66800005		1.54037090		0.38405594		0.00000000		-0.00000000		 0.00031113
O		0.00000000		3.08074126		1.84925593		0.00000000		0.00000000		 0.00049694
O		2.66800005		1.54036983		8.42555537		0.00000000		-0.00000000		 0.00049694
O		0.00000000		3.08074126		8.42555537		-0.00000000		0.00000000		 0.00049694
O		2.66800005		1.54037090		1.84925593		0.00000000		0.00000000		 0.00049694
O		2.63598405		0.00000000		13.03422717		 0.00079168		0.00000000		-0.00022151
O		-1.31799202		2.28282889		13.03422717		-0.00039584		 0.00068562		-0.00022151
O		1.35000803		2.33828327		13.03422717		-0.00039584		-0.00068562		-0.00022151
O		2.70001605		0.00000000		6.45792721		-0.00079168		-0.00000000		-0.00022151
O		-1.35000803		2.33828327		6.45792721		 0.00039584		-0.00068562		-0.00022151
O		1.31799202		2.28282889		6.45792721		 0.00039584		 0.00068562		-0.00022151
O		3.55733305		0.00000000		3.76032783		-0.00022041		-0.00000000		-0.00084476
O		-1.77866706		3.08074126		3.76032783		 0.00011020		-0.00019088		-0.00084476
O		0.88933299		1.54036983		3.76032783		 0.00011020		 0.00019088		-0.00084476
O		1.77866706		0.00000000		10.33662939		 0.00022041		0.00000000		-0.00084476
O		-0.88933299		1.54036983		10.33662939		-0.00011020		 0.00019088		-0.00084476
O		1.77866706		3.08074126		10.33662939		-0.00011020		-0.00019088		-0.00084476
O		0.00000000		0.00000000		1.89397428		0.00000000		-0.00000000		 0.00005860
O		0.00000000		0.00000000		8.47027532		0.00000000		0.00000000		 0.00005860
