# total energy = -18513.0082674 eV

CRYSTAL
PRIMVEC
		7.02599999		0.00000000		0.00000000
		0.00000000		6.22800096		0.00000000
		-0.43440353		0.00000000		4.23980456
PRIMECORD
   30 1
Mg		0.16677405		1.55700024		2.28101478		 0.00012821		0.00000000		-0.00011563
Mg		6.42482381		4.67100002		1.95878978		-0.00012821		0.00000000		 0.00011563
Mg		4.73063390		1.55700024		3.88790033		-0.00023899		0.00000000		 0.00037776
Mg		1.86096467		4.67100002		0.35190424		 0.00023899		0.00000000		-0.00037776
Mg		2.80620688		1.55700024		0.17807186		 0.00011297		0.00000000		-0.00033270
Mg		3.78539099		4.67100002		4.06173200		-0.00011297		0.00000000		 0.00033270
Si		0.00000000		0.00000000		0.00000000		0.00000000		-0.00000000		0.00000000
Si		0.00000000		3.11399978		0.00000000		0.00000000		0.00000000		0.00000000
Si		2.07748702		3.12645617		2.35309100		 0.00008901		-0.00002376		-0.00018040
Si		4.51411084		3.10154408		1.88671285		-0.00008901		 0.00002376		 0.00018040
Si		4.51411084		0.01245569		1.88671285		-0.00008901		-0.00002376		 0.00018040
Si		2.07748702		6.21554386		2.35309100		 0.00008901		 0.00002376		-0.00018040
O		5.50377634		3.48767969		0.59357334		 0.00003254		-0.00054281		 0.00010439
O		1.08782223		2.74031986		3.64623192		-0.00003254		 0.00054281		-0.00010439
O		1.08782223		0.37367992		3.64623192		-0.00003254		-0.00054281		-0.00010439
O		5.50377634		5.85431964		0.59357334		 0.00003254		 0.00054281		 0.00010439
O		5.86321666		2.74654771		2.77707216		 0.00025832		 0.00007354		 0.00023277
O		0.72838120		3.48145185		1.46273310		-0.00025832		-0.00007354		-0.00023277
O		0.72838120		5.86054819		1.46273310		-0.00025832		 0.00007354		-0.00023277
O		5.86321666		0.36745207		2.77707216		 0.00025832		-0.00007354		 0.00023277
O		1.96359767		1.55700024		1.81887612		-0.00009595		-0.00000000		-0.00025706
O		4.62800090		4.67100002		2.42092774		 0.00009595		-0.00000000		 0.00025706
O		3.11234796		3.45653976		1.03027226		 0.00010005		-0.00009840		 0.00004460
O		3.47924990		2.77145979		3.20953230		-0.00010005		 0.00009840		-0.00004460
O		3.47924990		0.34253998		3.20953230		-0.00010005		-0.00009840		-0.00004460
O		3.11234796		5.88546028		1.03027226		 0.00010005		 0.00009840		 0.00004460
O		4.38877614		1.55700024		1.32705893		-0.00043247		-0.00000000		 0.00069608
O		2.20282173		4.67100002		2.91274633		 0.00043247		-0.00000000		-0.00069608
O		6.82103681		1.55700024		0.49181719		-0.00005209		0.00000000		 0.00004443
O		-0.22943895		4.67100002		3.74798667		 0.00005209		0.00000000		-0.00004443
