# total energy = -38098.3106495 eV

CRYSTAL
PRIMVEC
		5.87601728		0.00000000		0.00000000
		0.00000000		11.67100752		0.00000000
		0.00000000		0.00000000		8.39026332
PRIMECORD
   58 1
O		1.52802713		1.45059920		8.40261176		-0.00003156		 0.00013241		-0.00006418
O		4.34798959		10.22040832		-0.01234673		 0.00003156		-0.00013239		 0.00006414
O		4.34798959		4.38490456		8.40261176		 0.00003154		-0.00013240		-0.00006417
O		1.52802713		7.28610239		-0.01234673		-0.00003154		 0.00013239		 0.00006412
O		1.52802713		10.22040832		-0.01234673		-0.00003157		-0.00013240		 0.00006414
O		4.34798959		1.45059920		8.40261176		 0.00003158		 0.00013241		-0.00006418
O		4.34798959		7.28610239		-0.01234673		 0.00003156		 0.00013239		 0.00006413
O		1.52802713		4.38490456		8.40261176		-0.00003154		-0.00013241		-0.00006418
O		2.93800864		5.66878899		6.40932890		0.00000000		 0.00026146		-0.00007837
O		2.93800864		6.00221797		1.98093613		-0.00000000		-0.00026151		 0.00007835
O		2.93800864		0.16671420		6.40932890		-0.00000000		-0.00026138		-0.00007831
O		2.93800864		11.50429275		1.98093613		 0.00000001		 0.00026143		 0.00007829
O		0.00000000		2.91775160		5.91118080		0.00000000		 0.00000003		 0.00016506
O		0.00000000		8.75325536		2.47908423		0.00000000		-0.00000003		-0.00016515
O		0.00000000		2.91775160		2.00278468		-0.00000000		-0.00000002		 0.00035326
O		0.00000000		8.75325536		6.38748034		0.00000000		-0.00000000		-0.00035313
O		2.93800864		8.75325536		6.01541965		-0.00000000		-0.00000001		 0.00048486
O		2.93800864		2.91775160		2.37484424		0.00000000		 0.00000001		-0.00048248
O		2.93800864		8.75325536		1.67108326		-0.00000000		-0.00000017		 0.00006087
O		2.93800864		2.91775160		6.71918177		-0.00000000		 0.00000016		-0.00006077
O		0.00000000		11.47108561		2.10225356		-0.00000000		 0.00012150		 0.00000371
O		0.00000000		0.19992135		6.28801147		0.00000000		-0.00012144		-0.00000373
O		0.00000000		6.03542511		2.10225356		0.00000000		-0.00012150		 0.00000373
O		0.00000000		5.63558185		6.28801147		-0.00000000		 0.00012145		-0.00000375
O		4.53601957		7.19752421		4.24576346		-0.00009995		-0.00016639		 0.00015617
O		1.33999772		4.47348274		4.14450157		 0.00009994		 0.00016635		-0.00015620
O		1.33999772		10.30898593		4.24576289		 0.00009995		 0.00016637		 0.00015616
O		4.53601957		1.36202102		4.14450157		-0.00009994		-0.00016634		-0.00015619
O		4.53601957		4.47348274		4.14450157		-0.00009995		 0.00016634		-0.00015622
O		1.33999772		7.19752421		4.24576289		 0.00009996		-0.00016637		 0.00015620
O		1.33999772		1.36202102		4.14450157		 0.00009992		-0.00016632		-0.00015620
O		4.53601957		10.30898593		4.24576289		-0.00009993		 0.00016635		 0.00015616
H		2.93800864		8.75325536		5.03190278		0.00000000		 0.00000001		 0.00036506
H		2.93800864		2.91775160		3.35836225		0.00000000		-0.00000000		-0.00036722
H		0.00000000		2.91775160		2.98416474		-0.00000000		-0.00000000		 0.00029675
H		0.00000000		8.75325536		5.40610029		0.00000000		 0.00000001		-0.00029680
Mg		2.93800864		5.83550319		4.19513280		-0.00000000		 0.00000006		 0.00000001
Mg		2.93800864		0.00000000		4.19513223		0.00000000		-0.00000006		 0.00000002
Mg		0.00000000		0.00000000		0.00000000		0.00000000		0.00000000		-0.00000000
Mg		0.00000000		5.83550319		0.00000000		-0.00000000		-0.00000000		-0.00000000
Mg		1.48847045		1.32398641		2.11198933		 0.00035314		-0.00013731		 0.00016781
Mg		4.38754626		10.34702054		6.27827570		-0.00035315		 0.00013732		-0.00016785
Mg		4.38754683		4.51151678		2.11198933		-0.00035314		 0.00013730		 0.00016781
Mg		1.48847045		7.15949017		6.27827570		 0.00035315		-0.00013731		-0.00016785
Mg		1.48847045		10.34702054		6.27827570		 0.00035315		 0.00013732		-0.00016786
Mg		4.38754626		1.32398698		2.11198933		-0.00035314		-0.00013732		 0.00016783
Mg		4.38754683		7.15949017		6.27827570		-0.00035315		-0.00013731		-0.00016787
Mg		1.48847045		4.51151678		2.11198933		 0.00035313		 0.00013730		 0.00016783
Mg		0.00000000		2.91775160		7.96038569		-0.00000000		-0.00000003		-0.00057004
Mg		0.00000000		8.75325536		0.42987876		 0.00000001		 0.00000002		 0.00057007
Si		2.93800864		7.28169443		0.91504489		-0.00000001		 0.00001186		 0.00039650
Si		2.93800864		4.38931252		7.47522013		-0.00000000		-0.00001185		-0.00039647
Si		2.93800864		10.22481628		0.91504489		 0.00000001		-0.00001162		 0.00039648
Si		2.93800864		1.44619067		7.47522013		-0.00000001		 0.00001161		-0.00039646
Si		0.00000000		1.39024074		5.08359672		 0.00000001		 0.00002339		 0.00023691
Si		0.00000000		10.28076621		3.30666830		-0.00000003		-0.00002344		-0.00023683
Si		0.00000000		4.44526302		5.08359672		-0.00000000		-0.00002342		 0.00023691
Si		0.00000000		7.22574393		3.30666830		-0.00000002		 0.00002347		-0.00023686
