# total energy = -35733.6903939 eV

CRYSTAL
PRIMVEC
		8.44982268		0.00000000		0.00000000
		-4.22491134		6.80721940		0.00000000
		0.00000000		0.00000000		9.57299846
PRIMECORD
   46 1
Mg		1.22395682		3.09524272		3.69230550		 0.00015154		-0.00028641		 0.00078993
Mg		0.73133215		6.24562391		3.69230550		-0.00005619		 0.00002745		 0.00022406
Mg		-1.95528897		4.27357218		3.69230550		 0.00012748		-0.00080809		-0.00018817
Mg		3.00095368		3.71197668		8.47880557		-0.00015154		 0.00028641		 0.00078993
Mg		3.49357919		0.56159465		8.47880557		 0.00005619		-0.00002745		 0.00022406
Mg		6.18019946		2.53364722		8.47880557		-0.00012748		 0.00080809		-0.00018817
Mg		0.87286668		1.65960010		1.07887674		-0.00009606		-0.00029721		 0.00021847
Mg		2.24342792		6.68060472		1.07887674		 0.00005955		-0.00007063		-0.00023720
Mg		-3.11629461		5.27423398		1.07887674		-0.00004012		-0.00007355		-0.00007054
Mg		3.35204466		5.14762015		5.86537682		 0.00009606		 0.00029721		 0.00021847
Mg		1.98148257		0.12661383		5.86537682		-0.00005955		 0.00007063		-0.00023720
Mg		7.34120595		1.53298627		5.86537682		 0.00004012		 0.00007355		-0.00007054
Mg		0.00000000		4.53814542		0.98506174		 0.00015397		 0.00013910		-0.00027328
Mg		4.22491050		2.26907313		5.77156181		-0.00015397		-0.00013910		-0.00027328
Si		4.22491050		2.26907313		1.66665908		-0.00006689		-0.00027747		-0.00025692
Si		0.00000000		4.53814542		6.45315916		 0.00006689		 0.00027747		-0.00025692
Si		0.00000000		0.00000000		3.84643111		-0.00021855		 0.00002031		-0.00013074
Si		0.00000000		0.00000000		8.63293203		 0.00021855		-0.00002031		-0.00013074
O		1.57504695		0.18651801		9.34324778		 0.00057365		 0.00000118		 0.00019246
O		7.48865451		1.17560693		9.34324778		-0.00031040		-0.00034344		-0.00012984
O		3.61103172		5.44509447		9.34324778		-0.00045915		 0.00024461		 0.00028268
O		2.64986355		6.62070140		4.55674771		-0.00057365		-0.00000118		 0.00019246
O		-3.26374401		5.63161247		4.55674771		 0.00031040		 0.00034344		-0.00012984
O		0.61387962		1.36212494		4.55674771		 0.00045915		-0.00024461		 0.00028268
O		3.60976425		0.67255265		4.63716045		 0.00010065		 0.00009961		 0.00030347
O		6.01880870		2.57176691		4.63716045		 0.00032972		-0.00008072		-0.00032963
O		3.04616108		3.56289900		4.63716045		-0.00025103		 0.00080144		 0.00006644
O		0.61514709		6.13466591		9.42366052		-0.00010065		-0.00009961		 0.00030347
O		-1.79389651		4.23545165		9.42366052		-0.00032972		 0.00008072		-0.00032963
O		1.17875026		3.24432125		9.42366052		 0.00025103		-0.00080144		 0.00006644
O		2.58944816		2.00608761		2.22093618		-0.00039356		 0.00013792		-0.00050239
O		5.28747570		1.08302898		2.22093618		-0.00009887		-0.00014166		-0.00008801
O		4.79780847		3.71810365		2.22093618		-0.00032688		 0.00003686		 0.00028035
O		1.63546403		4.80113179		7.00743542		 0.00039356		-0.00013792		-0.00050239
O		-1.06256520		5.72419042		7.00743542		 0.00009887		 0.00014166		-0.00008801
O		-0.57289798		3.08911575		7.00743542		 0.00032688		-0.00003686		 0.00028035
O		-0.40516900		2.97271268		2.29560473		-0.00026736		-0.00063762		 0.00001931
O		1.65996767		4.99445697		2.29560473		 0.00037755		-0.00000632		-0.00015588
O		-1.25479867		5.64726915		2.29560473		 0.00047771		-0.00028431		 0.00044275
O		4.63007949		3.83450672		7.08210481		 0.00026736		 0.00063762		 0.00001931
O		2.56494368		1.81276327		7.08210481		-0.00037755		 0.00000632		-0.00015588
O		5.47971001		1.15995025		7.08210481		-0.00047771		 0.00028431		 0.00044275
O		4.22491050		2.26907313		0.00000000		 0.00016103		-0.00036648		-0.00007660
O		0.00000000		4.53814542		4.78650008		-0.00016103		 0.00036648		-0.00007660
O		0.00000000		0.00000000		2.22380828		-0.00029068		 0.00021164		-0.00038071
O		0.00000000		0.00000000		7.01030751		 0.00029068		-0.00021164		-0.00038071
