# total energy = -12280.6550577 eV	

CRYSTAL	
PRIMVEC	
		3.14300015		-0.12571988		0.00000000	
		-1.68037730		2.78477650		0.00000000	
		0.00000000		0.00000000		22.77199785	
PRIMCOORD
   22 1	
O		-0.07258398		1.81461209		15.30961516		 0.00052455		 0.00004853		 0.00018904	
O		1.53520809		0.84444610		7.46238520		-0.00052455		-0.00004853		-0.00018904	
O		1.53520809		0.84444610		17.52077615		-0.00046736		-0.00000082		-0.00029524	
O		-0.07258398		1.81461209		5.25122295		 0.00046736		 0.00000082		 0.00029524	
O		-0.07258398		1.81461209		10.28155821		 0.00044547		 0.00003234		 0.00046266	
O		1.53520809		0.84444610		12.49044216		-0.00044547		-0.00003234		-0.00046266	
O		-0.07258398		1.81461209		20.41965206		-0.00005856		 0.00052177		-0.00093717	
O		1.53520809		0.84444610		2.35234704		 0.00005856		-0.00052177		 0.00093717	
O		0.00000000		0.00000000		0.00000000		0.00000000		0.00000000		0.00000000	
H		-0.07258398		1.81461209		14.32130995		-0.00005002		 0.00005665		-0.00051235	
H		1.53520809		0.84444610		8.45068916		 0.00005002		-0.00005665		 0.00051235	
H		-0.07258398		1.81461209		9.29097595		-0.00004218		 0.00005338		-0.00057071	
H		1.53520809		0.84444610		13.48102410		 0.00004218		-0.00005338		 0.00057071	
H		-0.07258398		1.81461209		19.42907012		-0.00076309		 0.00021697		-0.00039232	
H		1.53520809		0.84444610		3.34292898		 0.00076309		-0.00021697		 0.00039232	
H		1.53520809		0.84444610		18.51135809		-0.00020194		-0.00012640		 0.00006511	
H		-0.07258398		1.81461209		4.26064102		 0.00020194		 0.00012640		-0.00006511	
Mg		0.00000000		0.00000000		16.41633418		-0.00000511		 0.00001685		-0.00023749	
Mg		0.00000000		0.00000000		6.35566493		 0.00000511		-0.00001685		 0.00023749	
Mg		1.53520809		0.84444610		21.53548017		-0.00094441		 0.00020442		 0.00094206	
Mg		-0.07258398		1.81461209		1.23651988		 0.00094441		-0.00020442		-0.00094206	
Mg		0.00000000		0.00000000		11.38600018		0.00000000		0.00000000		0.00000000	
