# total energy = -11144.7107883 eV	

CRYSTAL	
PRIMVEC	
		7.44100123		-0.89291835		0.00000000	
		-0.52920092		4.41000265		0.00000000	
		0.00000000		0.00000000		8.29200349	
PRIMCOORD
   12 1	
Ca		0.01317213		1.08504287		5.64411631		-0.00081264		-0.00021165		 0.00020357	
Ca		6.89862818		2.43203619		2.64788418		 0.00081264		 0.00021165		-0.00020357	
Ca		3.17812832		2.87849611		1.49811606		 0.00081264		 0.00021165		 0.00020357	
Ca		3.73367199		0.63858295		6.79388368		-0.00081264		-0.00021165		-0.00020357	
Si		1.88116001		0.86088510		3.19739488		 0.00062751		-0.00006494		-0.00089569	
Si		5.03064030		2.65619470		5.09460486		-0.00062751		 0.00006494		 0.00089569	
Si		1.31013968		3.10265538		7.34339512		-0.00062751		 0.00006494		-0.00089569	
Si		5.60165988		0.41442518		0.94860537		 0.00062751		-0.00006494		 0.00089569	
Mg		0.94024613		0.97379399		0.52919492		-0.00089662		-0.00002404		-0.00018840	
Mg		5.97155418		2.54328507		7.76280407		 0.00089662		 0.00002404		 0.00018840	
Mg		2.25105431		2.98974499		4.67519517		 0.00089662		 0.00002404		-0.00018840	
Mg		4.66074600		0.52733407		3.61680382		-0.00089662		-0.00002404		 0.00018840	
