# total energy = -11145.8114188 eV	

CRYSTAL	
PRIMVEC	
		7.44099778		0.59527833		0.00000000	
		0.35280011		4.41000132		0.00000000	
		0.00000000		0.00000000		8.29199684	
PRIMCOORD
   12 1	
Ca		0.23367203		1.11413828		5.64411567		 0.00006443		 0.00088419		 0.00014928	
Ca		7.56012809		3.89114211		2.64788415		-0.00006443		-0.00088419		-0.00014928	
Ca		3.83962771		3.59350220		1.49811576		-0.00006443		-0.00088419		 0.00014928	
Ca		3.95417167		1.41177820		6.79388407		 0.00006443		 0.00088419		-0.00014928	
Si		2.10165983		1.26357707		3.19739521		-0.00027577		 0.00090454		 0.00015196	
Si		5.69213955		3.74170258		5.09460462		 0.00027577		-0.00090454		-0.00015196	
Si		1.97163991		3.44406267		7.34339513		 0.00027577		-0.00090454		 0.00015196	
Si		5.82216022		1.56121698		0.94860470		-0.00027577		 0.00090454		-0.00015196	
Mg		1.16074609		1.18830379		0.52919493		 0.00000330		-0.00067094		-0.00015266	
Mg		6.63305404		3.81697586		7.76280415		-0.00000330		 0.00067094		 0.00015266	
Mg		2.91255365		3.51933595		4.67519485		-0.00000330		 0.00067094		-0.00015266	
Mg		4.88124572		1.48594370		3.61680423		 0.00000330		-0.00067094		 0.00015266	
