# total energy = -11145.8114186 eV	

CRYSTAL	
PRIMVEC	
		7.44099778		-0.59527833		0.00000000	
		-0.35280011		4.41000132		0.00000000	
		0.00000000		0.00000000		8.29199684	
PRIMCOORD
   12 1	
Ca		0.05727198		1.09086163		5.64411567		 0.00006454		-0.00088412		 0.00014960	
Ca		7.03092794		2.72385763		2.64788415		-0.00006454		 0.00088412		-0.00014960	
Ca		3.31042830		3.02149829		1.49811576		-0.00006454		 0.00088412		 0.00014960	
Ca		3.77777162		0.79322172		6.79388407		 0.00006454		-0.00088412		-0.00014960	
Si		1.92525978		0.94142284		3.19739521		-0.00027563		-0.00090452		 0.00015175	
Si		5.16294013		2.87329716		5.09460462		 0.00027563		 0.00090452		-0.00015175	
Si		1.44243975		3.17093707		7.34339513		 0.00027563		 0.00090452		 0.00015175	
Si		5.64576016		0.64378293		0.94860470		-0.00027563		-0.00090452		-0.00015175	
Mg		0.98434603		1.01669612		0.52919493		 0.00000312		 0.00067089		-0.00015234	
Mg		6.10385388		2.79802388		7.76280415		-0.00000312		-0.00067089		 0.00015234	
Mg		2.38335424		3.09566379		4.67519485		-0.00000312		-0.00067089		-0.00015234	
Mg		4.70484567		0.71905621		3.61680423		 0.00000312		 0.00067089		 0.00015234	
