# total energy = -21542.231983 eV	

CRYSTAL	
PRIMVEC	
		5.18479989		0.00000000		0.00000000	
		0.00000000		8.92299913		0.00000000	
		-0.14435001		-0.11066955		10.10702077	
PRIMCOORD
   42 1	
Mg		0.00000000		0.00000000		0.00000000		0.00000000		0.00000000		0.00000000	
Mg		2.59239994		4.46150008		0.00000000		0.00000000		0.00000000		0.00000000	
Mg		2.59239994		1.48648316		0.00000000		-0.00018202		 0.00075068		 0.00021957	
Mg		2.59239994		7.43651804		0.00000000		 0.00018202		-0.00075068		-0.00021957	
Mg		0.00000000		5.94798273		0.00000000		-0.00018156		 0.00070440		 0.00021768	
Mg		0.00000000		2.97501692		0.00000000		 0.00018156		-0.00070440		-0.00021768	
Si		4.28040591		1.45641910		2.94114306		-0.00003518		 0.00044450		 0.00028969	
Si		0.76004293		7.35591099		7.16587667		 0.00003518		-0.00044450		-0.00028969	
Si		1.68800597		5.91791867		2.94114306		-0.00003662		 0.00030962		 0.00029645	
Si		3.35244287		2.89440987		7.16587667		 0.00003662		-0.00030962		-0.00029645	
Si		1.68800597		2.94067073		2.94114306		 0.00012982		 0.00007648		 0.00035133	
Si		3.35244287		5.87165884		7.16587667		-0.00012982		-0.00007648		-0.00035133	
Si		4.28040591		7.40217081		2.94114306		 0.00013390		-0.00004346		 0.00034464	
Si		0.76004293		1.41015876		7.16587667		-0.00013390		 0.00004346		-0.00034464	
O		1.71272606		2.95861169		1.18858478		 0.00052773		-0.00051984		 0.00042200	
O		3.32772382		5.85371788		8.91843391		-0.00052773		 0.00051984		-0.00042200	
O		4.30512600		7.42011177		1.18858478		 0.00053220		-0.00051834		 0.00046379	
O		0.73532387		1.39221780		8.91843391		-0.00053220		 0.00051834		-0.00046379	
O		4.30512600		1.47694780		1.18858478		 0.00048591		 0.00090081		 0.00067021	
O		0.73532387		7.33538177		8.91843391		-0.00048591		-0.00090081		-0.00067021	
O		1.71272606		5.93844788		1.18858478		 0.00048068		 0.00090206		 0.00063040	
O		3.32772382		2.87388169		8.91843391		-0.00048068		-0.00090206		-0.00063040	
O		1.71012899		-0.01246219		1.13805009		 0.00044913		 0.00021823		 0.00037061	
O		3.33031985		-0.09820892		8.96896860		-0.00044913		-0.00021823		-0.00037061	
O		4.30252893		4.44903893		1.13805009		 0.00045915		 0.00021831		-0.00078112	
O		0.73792094		4.36329116		8.96896860		-0.00045915		-0.00021831		 0.00078112	
O		1.77272715		4.42297598		3.51825277		 0.00000304		-0.00007132		-0.00092860	
O		3.26772168		4.38935411		6.58876592		-0.00000304		 0.00007132		 0.00092860	
O		4.36512710		-0.03852514		3.51825277		 0.00001510		-0.00008309		-0.00089697	
O		0.67532174		-0.07214597		6.58876592		-0.00001510		 0.00008309		 0.00089697	
O		2.93016995		2.11174100		3.52633898		-0.00019970		 0.00000018		-0.00014291	
O		2.11027888		6.70058910		6.58068075		 0.00019970		-0.00000018		 0.00014291	
O		0.33777001		6.57324108		3.52633898		-0.00028225		 0.00007321		-0.00014682	
O		4.70267986		2.23908901		6.58068075		 0.00028225		-0.00007321		 0.00014682	
O		0.33771816		2.27253305		3.52633898		 0.00018567		-0.00016597		-0.00032511	
O		4.70273067		6.53979705		6.58068075		-0.00018567		 0.00016597		 0.00032511	
O		2.93011914		6.73403261		3.52633898		 0.00026849		-0.00009227		-0.00031864	
O		2.11033073		2.07829593		6.58068075		-0.00026849		 0.00009227		 0.00031864	
H		1.69733912		-0.00881416		2.05172486		-0.00033768		-0.00001522		-0.00047341	
H		3.34311075		8.82114373		8.05529383		 0.00033768		 0.00001522		 0.00047341	
H		4.28973907		4.45268592		2.05172486		-0.00033412		-0.00001488		 0.00055874	
H		0.75071081		4.35964313		8.05529383		 0.00033412		 0.00001488		-0.00055874	
