# total energy = -21539.7364678 eV	

CRYSTAL	
PRIMVEC	
		5.18479989		0.00000000		0.00000000	
		0.00000000		8.92299913		0.00000000	
		-0.14435001		-0.11066955		8.26937733	
PRIMCOORD
   42 1	
Mg		0.00000000		0.00000000		0.00000000		0.00000000		0.00000000		0.00000000	
Mg		2.59239994		4.46150008		0.00000000		0.00000000		0.00000000		0.00000000	
Mg		2.59239994		1.48648316		0.00000000		-0.00004161		-0.00059473		 0.00002236	
Mg		2.59239994		7.43651804		0.00000000		 0.00004161		 0.00059473		-0.00002236	
Mg		0.00000000		5.94798273		0.00000000		-0.00004111		-0.00059104		 0.00002080	
Mg		0.00000000		2.97501692		0.00000000		 0.00004111		 0.00059104		-0.00002080	
Si		4.28040591		1.45641910		2.40638903		-0.00011648		-0.00018626		-0.00007224	
Si		0.76004293		7.35591099		5.86298986		 0.00011648		 0.00018626		 0.00007224	
Si		1.68800597		5.91791867		2.40638903		-0.00014060		-0.00014793		-0.00007194	
Si		3.35244287		2.89440987		5.86298986		 0.00014060		 0.00014793		 0.00007194	
Si		1.68800597		2.94067073		2.40638903		-0.00013879		-0.00009416		-0.00023326	
Si		3.35244287		5.87165884		5.86298986		 0.00013879		 0.00009416		 0.00023326	
Si		4.28040591		7.40217081		2.40638903		-0.00015028		-0.00004210		-0.00022816	
Si		0.76004293		1.41015876		5.86298986		 0.00015028		 0.00004210		 0.00022816	
O		1.71272606		2.95861169		0.97247921		 0.00017433		 0.00016509		-0.00012861	
O		3.32772382		5.85371788		7.29689967		-0.00017433		-0.00016509		 0.00012861	
O		4.30512600		7.42011177		0.97247921		 0.00017125		 0.00015860		-0.00013395	
O		0.73532387		1.39221780		7.29689967		-0.00017125		-0.00015860		 0.00013395	
O		4.30512600		1.47694780		0.97247921		 0.00022428		-0.00017694		-0.00034366	
O		0.73532387		7.33538177		7.29689967		-0.00022428		 0.00017694		 0.00034366	
O		1.71272606		5.93844788		0.97247921		 0.00022636		-0.00018445		-0.00033538	
O		3.32772382		2.87388169		7.29689967		-0.00022636		 0.00018445		 0.00033538	
O		1.71012899		-0.01246219		0.93113199		-0.00001869		 0.00004721		 0.00018416	
O		3.33031985		-0.09820892		7.33824793		 0.00001869		-0.00004721		-0.00018416	
O		4.30252893		4.44903893		0.93113199		-0.00001932		 0.00004710		 0.00011083	
O		0.73792094		4.36329116		7.33824793		 0.00001932		-0.00004710		-0.00011083	
O		1.77272715		4.42297598		2.87857083		-0.00043377		 0.00034882		 0.00001678	
O		3.26772168		4.38935411		5.39080806		 0.00043377		-0.00034882		-0.00001678	
O		4.36512710		-0.03852514		2.87857083		-0.00043000		 0.00033065		 0.00000529	
O		0.67532174		-0.07214597		5.39080806		 0.00043000		-0.00033065		-0.00000529	
O		2.93016995		2.11174100		2.88518611		 0.00006700		-0.00034009		 0.00048246	
O		2.11027888		6.70058910		5.38419277		-0.00006700		 0.00034009		-0.00048246	
O		0.33777001		6.57324108		2.88518611		 0.00011559		-0.00038400		 0.00047637	
O		4.70267986		2.23908901		5.38419277		-0.00011559		 0.00038400		-0.00047637	
O		0.33771816		2.27253305		2.88518611		 0.00034238		 0.00050869		 0.00070035	
O		4.70273067		6.53979705		5.38419277		-0.00034238		-0.00050869		-0.00070035	
O		2.93011914		6.73403261		2.88518611		 0.00032626		 0.00048300		 0.00070691	
O		2.11033073		2.07829593		5.38419277		-0.00032626		-0.00048300		-0.00070691	
H		1.69733912		-0.00881416		1.67868421		-0.00020697		-0.00010030		 0.00001132	
H		3.34311075		8.82114373		6.59069467		 0.00020697		 0.00010030		-0.00001132	
H		4.28973907		4.45268592		1.67868421		-0.00020795		-0.00010046		 0.00008110	
H		0.75071081		4.35964313		6.59069467		 0.00020795		 0.00010046		-0.00008110	
