# total energy = -21541.8371535 eV

CRYSTAL
PRIMVEC
		5.18479989		0.00000000		0.00000000
		0.00000000		8.92299913		0.00000000
		-0.14435001		-0.11066955		9.18819646
PRIMECORD
   42 1
Mg		0.00000000		0.00000000		0.00000000		0.00000000		0.00000000		0.00000000
Mg		2.59239994		4.46150008		0.00000000		0.00000000		0.00000000		0.00000000
Mg		2.59239994		1.48648316		0.00000000		-0.00003403		-0.00007942		-0.00015852
Mg		2.59239994		7.43651804		0.00000000		 0.00003403		 0.00007942		 0.00015852
Mg		0.00000000		5.94798273		0.00000000		-0.00003340		-0.00008180		-0.00015799
Mg		0.00000000		2.97501692		0.00000000		 0.00003340		 0.00008180		 0.00015799
Si		4.28040591		1.45641910		2.67376605		-0.00021642		-0.00001948		 0.00028399
Si		0.76004293		7.35591099		6.51443300		 0.00021642		 0.00001948		-0.00028399
Si		1.68800597		5.91791867		2.67376605		-0.00021418		-0.00002897		 0.00027929
Si		3.35244287		2.89440987		6.51443300		 0.00021418		 0.00002897		-0.00027929
Si		1.68800597		2.94067073		2.67376605		-0.00018278		-0.00005939		 0.00036224
Si		3.35244287		5.87165884		6.51443300		 0.00018278		 0.00005939		-0.00036224
Si		4.28040591		7.40217081		2.67376605		-0.00018686		-0.00008081		 0.00036497
Si		0.76004293		1.41015876		6.51443300		 0.00018686		 0.00008081		-0.00036497
O		1.71272606		2.95861169		1.08053200		 0.00051669		 0.00008119		 0.00043596
O		3.32772382		5.85371788		8.10766705		-0.00051669		-0.00008119		-0.00043596
O		4.30512600		7.42011177		1.08053200		 0.00051584		 0.00008285		 0.00043571
O		0.73532387		1.39221780		8.10766705		-0.00051584		-0.00008285		-0.00043571
O		4.30512600		1.47694780		1.08053200		 0.00020515		 0.00036106		 0.00051958
O		0.73532387		7.33538177		8.10766705		-0.00020515		-0.00036106		-0.00051958
O		1.71272606		5.93844788		1.08053200		 0.00020564		 0.00036219		 0.00051809
O		3.32772382		2.87388169		8.10766705		-0.00020564		-0.00036219		-0.00051809
O		1.71012899		-0.01246219		1.03459104		 0.00017001		 0.00005715		-0.00044576
O		3.33031985		-0.09820892		8.15360801		-0.00017001		-0.00005715		 0.00044576
O		4.30252893		4.44903893		1.03459104		 0.00017483		 0.00005690		-0.00044194
O		0.73792094		4.36329116		8.15360801		-0.00017483		-0.00005690		 0.00044194
O		1.77272715		4.42297598		3.19841180		-0.00020970		-0.00051193		 0.00006898
O		3.26772168		4.38935411		5.98978673		 0.00020970		 0.00051193		-0.00006898
O		4.36512710		-0.03852514		3.19841180		-0.00020809		-0.00050220		 0.00007172
O		0.67532174		-0.07214597		5.98978673		 0.00020809		 0.00050220		-0.00007172
O		2.93016995		2.11174100		3.20576281		-0.00036536		-0.00025680		 0.00028125
O		2.11027888		6.70058910		5.98243676		 0.00036536		 0.00025680		-0.00028125
O		0.33777001		6.57324108		3.20576281		-0.00037998		-0.00024664		 0.00028184
O		4.70267986		2.23908901		5.98243676		 0.00037998		 0.00024664		-0.00028184
O		0.33771816		2.27253305		3.20576281		-0.00071371		 0.00012895		 0.00057489
O		4.70273067		6.53979705		5.98243676		 0.00071371		-0.00012895		-0.00057489
O		2.93011914		6.73403261		3.20576281		-0.00069916		 0.00013906		 0.00057369
O		2.11033073		2.07829593		5.98243676		 0.00069916		-0.00013906		-0.00057369
H		1.69733912		-0.00881416		1.86520376		-0.00033050		-0.00007409		-0.00031587
H		3.34311075		8.82114373		7.32299477		 0.00033050		 0.00007409		 0.00031587
H		4.28973907		4.45268592		1.86520376		-0.00033225		-0.00007371		-0.00032095
H		0.75071081		4.35964313		7.32299477		 0.00033225		 0.00007371		 0.00032095
