# total energy = -18362.0135657 eV

CRYSTAL
PRIMVEC
		5.29649967		0.00000000		0.00000000
		0.00000000		11.08000189		0.00000000
		0.00000000		0.00000000		6.36999952
PRIMECORD
   28 1
Mg		0.00000000		0.00000000		0.00000000		0.00000000		-0.00000000		0.00000000
Mg		2.64824983		5.53999989		0.00000000		0.00000000		0.00000000		0.00000000
Mg		0.00000000		0.00000000		3.18499976		-0.00000000		-0.00000000		0.00000000
Mg		2.64824983		5.53999989		3.18499976		0.00000000		0.00000000		0.00000000
Ca		5.20645865		2.84755977		1.59250014		-0.00023960		 0.00008908		0.00000000
Ca		0.09004102		8.23243948		4.77749990		 0.00023960		-0.00008908		0.00000000
Ca		2.55820987		2.69243959		4.77749990		-0.00023960		-0.00008908		0.00000000
Ca		2.73829086		8.38755965		1.59250014		 0.00023960		 0.00008908		0.00000000
Si		2.13448990		0.95288001		1.59250014		 0.00002674		-0.00002706		-0.00000000
Si		3.16201083		10.12711923		4.77749990		-0.00002674		 0.00002706		-0.00000000
Si		4.78273973		4.58711987		4.77749990		 0.00002674		 0.00002706		0.00000000
Si		0.51376100		6.49287937		1.59250014		-0.00002674		-0.00002706		0.00000000
O		4.04652575		0.74236004		1.59250014		-0.00008872		 0.00036945		0.00000000
O		1.24997392		10.33763920		4.77749990		 0.00008872		-0.00036945		-0.00000000
O		1.39827591		4.79763984		4.77749990		-0.00008872		-0.00036945		0.00000000
O		3.89822376		6.28235940		1.59250014		 0.00008872		 0.00036945		0.00000000
O		3.89822376		5.14111944		1.59250014		 0.00013497		-0.00032559		0.00000000
O		1.39827591		5.93887981		4.77749990		-0.00013497		 0.00032559		-0.00000000
O		1.24997392		0.39887992		4.77749990		 0.00013497		 0.00032559		0.00000000
O		4.04652575		10.68111932		1.59250014		-0.00013497		-0.00032559		-0.00000000
O		1.32412492		1.69524006		0.19109983		 0.00012500		-0.00005251		-0.00002838
O		3.97237475		9.38475919		6.17889969		-0.00012500		 0.00005251		 0.00002838
O		3.97237475		3.84475983		6.17889969		 0.00012500		 0.00005251		 0.00002838
O		1.32412492		7.23523941		0.19109983		-0.00012500		-0.00005251		-0.00002838
O		3.97237475		9.38475919		3.37609959		-0.00012500		 0.00005251		-0.00002838
O		1.32412492		1.69524006		2.99389993		 0.00012500		-0.00005251		 0.00002838
O		1.32412492		7.23523941		2.99389993		-0.00012500		-0.00005251		 0.00002838
O		3.97237475		3.84475983		3.37609959		 0.00012500		 0.00005251		-0.00002838
