# total energy = -18383.0263308 eV

CRYSTAL
PRIMVEC
		4.45387494		0.00000000		0.00000000
		0.00000000		11.07999822		0.00000000
		0.00000000		0.00000000		6.36999874
PRIMECORD
   28 1
Mg		0.00000000		0.00000000		0.00000000		0.00000000		0.00000000		0.00000000
Mg		2.22693791		5.54000000		0.00000000		-0.00000000		0.00000000		0.00000000
Mg		0.00000000		0.00000000		3.18499982		0.00000000		-0.00000000		0.00000000
Mg		2.22693791		5.54000000		3.18499982		0.00000000		0.00000000		0.00000000
Ca		4.37815906		2.84756000		1.59249991		 0.00070644		-0.00022384		0.00000000
Ca		0.07571587		8.23244000		4.77749973		-0.00070644		 0.00022384		0.00000000
Ca		2.15122204		2.69244000		4.77749973		 0.00070644		 0.00022384		-0.00000000
Ca		2.30265290		8.38756000		1.59249991		-0.00070644		-0.00022384		-0.00000000
Si		1.79491205		0.95287982		1.59249991		 0.00045873		-0.00026743		0.00000000
Si		2.65896289		10.12711973		4.77749973		-0.00045873		 0.00026743		0.00000000
Si		4.02184907		4.58711973		4.77749973		 0.00045873		 0.00026743		-0.00000000
Si		0.43202587		6.49287982		1.59249991		-0.00045873		-0.00026743		-0.00000000
O		3.40276090		0.74235985		1.59249991		-0.00048073		-0.00031975		0.00000000
O		1.05111493		10.33763970		4.77749973		 0.00048073		 0.00031975		0.00000000
O		1.17582298		4.79764015		4.77749973		-0.00048073		 0.00031975		-0.00000000
O		3.27805195		6.28235985		1.59249991		 0.00048073		-0.00031975		-0.00000000
O		3.27805195		5.14111987		1.59249991		-0.00004425		 0.00008810		-0.00000000
O		1.17582298		5.93888013		4.77749973		 0.00004425		-0.00008810		-0.00000000
O		1.05111493		0.39888013		4.77749973		-0.00004425		-0.00008810		0.00000000
O		3.40276090		10.68111987		1.59249991		 0.00004425		 0.00008810		0.00000000
O		1.11346918		1.69524011		0.19110019		 0.00021204		 0.00017727		 0.00070840
O		3.34040576		9.38475988		6.17889990		-0.00021204		-0.00017727		-0.00070840
O		3.34040576		3.84475988		6.17889990		 0.00021204		-0.00017727		-0.00070840
O		1.11346918		7.23524011		0.19110019		-0.00021204		 0.00017727		 0.00070840
O		3.34040576		9.38475988		3.37610000		-0.00021204		-0.00017727		 0.00070840
O		1.11346918		1.69524011		2.99390008		 0.00021204		 0.00017727		-0.00070840
O		1.11346918		7.23524011		2.99390008		-0.00021204		 0.00017727		-0.00070840
O		3.34040576		3.84475988		3.37610000		 0.00021204		-0.00017727		 0.00070840
