# total energy = -11146.6866287 eV	

CRYSTAL	
PRIMVEC	
		7.44099980		0.00000000		0.00000000	
		0.00000000		4.29975197		0.00000000	
		0.00000000		0.00000000		8.29199718	
PRIMCOORD
   12 1	
Ca		0.14547229		1.07493725		5.64411591		 0.00018034		0.00000000		-0.00017855	
Ca		7.29552751		3.22481174		2.64788424		-0.00018034		0.00000000		 0.00017855	
Ca		3.57502761		3.22481174		1.49811584		-0.00018034		0.00000000		-0.00017855	
Ca		3.86597219		1.07493725		6.79388358		 0.00018034		0.00000000		 0.00017855	
Si		2.01346014		1.07493725		3.19739464		 0.00052561		0.00000000		 0.00014927	
Si		5.42753966		3.22481174		5.09460478		-0.00052561		0.00000000		-0.00014927	
Si		1.70703976		3.22481174		7.34339471		-0.00052561		0.00000000		 0.00014927	
Si		5.73396003		1.07493725		0.94860470		 0.00052561		0.00000000		-0.00014927	
Mg		1.07254571		1.07493725		0.52919498		-0.00047220		0.00000000		-0.00066742	
Mg		6.36845409		3.22481174		7.76280369		 0.00047220		0.00000000		 0.00066742	
Mg		2.64795419		3.22481174		4.67519505		 0.00047220		0.00000000		-0.00066742	
Mg		4.79304561		1.07493725		3.61680361		-0.00047220		0.00000000		 0.00066742	
