# total energy = -11145.9156251 eV	

CRYSTAL	
PRIMVEC	
		7.44099980		0.00000000		0.00000000	
		0.00000000		4.85100356		0.00000000	
		0.00000000		0.00000000		8.29199718	
PRIMCOORD
   12 1	
Ca		0.14547229		1.21274977		5.64411591		-0.00045305		0.00000000		 0.00067041	
Ca		7.29552751		3.63825006		2.64788424		 0.00045305		0.00000000		-0.00067041	
Ca		3.57502761		3.63825006		1.49811584		 0.00045305		-0.00000000		 0.00067041	
Ca		3.86597219		1.21274977		6.79388358		-0.00045305		0.00000000		-0.00067041	
Si		2.01346014		1.21274977		3.19739464		 0.00001041		0.00000000		-0.00064254	
Si		5.42753966		3.63825006		5.09460478		-0.00001041		0.00000000		 0.00064254	
Si		1.70703976		3.63825006		7.34339471		-0.00001041		0.00000000		-0.00064254	
Si		5.73396003		1.21274977		0.94860470		 0.00001041		0.00000000		 0.00064254	
Mg		1.07254571		1.21274977		0.52919498		 0.00091298		-0.00000000		-0.00045479	
Mg		6.36845409		3.63825006		7.76280369		-0.00091298		-0.00000000		 0.00045479	
Mg		2.64795419		3.63825006		4.67519505		-0.00091298		0.00000000		-0.00045479	
Mg		4.79304561		1.21274977		3.61680361		 0.00091298		0.00000000		 0.00045479	
