# total energy = -18391.1378616 eV

CRYSTAL
PRIMVEC
		11.10979961		0.00000000		0.00000000
		0.00000000		6.38940129		0.00000000
		0.00000000		0.00000000		4.82809672
PRIMECORD
   28 1
Mg		0.00000000		0.00000000		0.00000000		0.00000000		0.00000000		0.00000000
Mg		5.55489981		0.00000000		2.41404947		0.00000000		-0.00000000		0.00000000
Mg		0.00000000		3.19469954		0.00000000		0.00000000		0.00000000		-0.00000000
Mg		5.55489981		3.19469954		2.41404947		0.00000000		0.00000000		-0.00000000
Ca		3.07563692		1.59735032		4.71922735		-0.00088579		-0.00000000		 0.00049367
Ca		8.03416380		4.79204986		0.10887381		 0.00088579		0.00000000		-0.00049367
Ca		2.47926288		4.79204986		2.30517677		 0.00088579		0.00000000		 0.00049367
Ca		8.63053673		1.59735032		2.52292439		-0.00088579		0.00000000		-0.00049367
Si		0.90611526		1.59735032		1.98425243		-0.00016615		-0.00000000		-0.00046037
Si		10.20368436		4.79204986		2.84384762		 0.00016615		0.00000000		 0.00046037
Si		4.64878455		4.79204986		4.39830301		 0.00016615		0.00000000		-0.00046037
Si		6.46101617		1.59735032		0.42979815		-0.00016615		0.00000000		 0.00046037
O		0.86289814		1.59735032		3.60031388		 0.00014359		-0.00000000		-0.00039742
O		10.24690148		4.79204986		1.22778617		-0.00014359		0.00000000		 0.00039742
O		4.69200167		4.79204986		1.18626441		-0.00014359		0.00000000		-0.00039742
O		6.41779794		1.59735032		3.64183564		 0.00014359		0.00000000		 0.00039742
O		4.98841224		1.59735032		1.18771313		 0.00016766		-0.00000000		 0.00021271
O		6.12138849		4.79204986		3.64038803		-0.00016766		-0.00000000		-0.00021271
O		0.56648868		4.79204986		3.60176259		-0.00016766		-0.00000000		 0.00021271
O		10.54331204		1.59735032		1.22633745		 0.00016766		0.00000000		-0.00021271
O		1.63902874		0.29199553		1.31951979		-0.00025536		 0.00016402		-0.00037543
O		9.47077088		6.09740354		3.50858026		 0.00025536		-0.00016402		 0.00037543
O		3.91587107		6.09740354		3.73357037		 0.00025536		-0.00016402		-0.00037543
O		7.19392854		0.29199553		1.09452968		-0.00025536		 0.00016402		 0.00037543
O		9.47077088		3.48669618		3.50858026		 0.00025536		 0.00016402		 0.00037543
O		1.63902874		2.90270401		1.31951979		-0.00025536		-0.00016402		-0.00037543
O		7.19392854		2.90270401		1.09452968		-0.00025536		-0.00016402		 0.00037543
O		3.91587107		3.48669618		3.73357037		 0.00025536		 0.00016402		-0.00037543
