# total energy = -18504.3527436 eV

CRYSTAL
PRIMVEC
		6.67469988		0.00000000		0.00000000
		0.00000000		6.22800227		0.00000000
		-0.41268334		0.00000000		4.23980274
PRIMECORD
   30 1
Mg		0.15843468		1.55699990		2.28101527		 0.00001562		0.00000000		-0.00046233
Mg		6.10358319		4.67099970		1.95879013		-0.00001562		0.00000000		 0.00046233
Mg		4.49410213		1.55699990		3.88789988		 0.00005334		0.00000000		-0.00006759
Mg		1.76791574		4.67099970		0.35190419		-0.00005334		0.00000000		 0.00006759
Mg		2.66589716		1.55699990		0.17807232		 0.00025361		0.00000000		-0.00027834
Mg		3.59612071		4.67099970		4.06173176		-0.00025361		0.00000000		 0.00027834
Si		0.00000000		0.00000000		0.00000000		0.00000000		0.00000000		-0.00000000
Si		0.00000000		3.11399980		0.00000000		0.00000000		0.00000000		0.00000000
Si		1.97361264		3.12645612		2.35309069		-0.00011952		-0.00008856		-0.00006344
Si		4.28840523		3.10154414		1.88671272		 0.00011952		 0.00008856		 0.00006344
Si		4.28840523		0.01245632		1.88671272		 0.00011952		-0.00008856		 0.00006344
Si		1.97361264		6.21554394		2.35309069		-0.00011952		 0.00008856		-0.00006344
O		5.22858677		3.48768020		0.59357305		 0.00000132		-0.00004755		-0.00009025
O		1.03343110		2.74032006		3.64623169		-0.00000132		 0.00004755		 0.00009025
O		1.03343110		0.37367974		3.64623169		-0.00000132		-0.00004755		 0.00009025
O		5.22858677		5.85431986		0.59357305		 0.00000132		 0.00004755		-0.00009025
O		5.57005574		2.74654823		2.77707163		-0.00012390		 0.00020207		-0.00020991
O		0.69196213		3.48145204		1.46273311		 0.00012390		-0.00020207		 0.00020991
O		0.69196213		5.86054802		1.46273311		 0.00012390		 0.00020207		 0.00020991
O		5.57005574		0.36745224		2.77707163		-0.00012390		-0.00020207		-0.00020991
O		1.86541776		1.55699990		1.81887574		-0.00011099		0.00000000		-0.00017803
O		4.39660078		4.67099970		2.42092766		 0.00011099		0.00000000		 0.00017803
O		2.95673119		3.45654006		1.03027197		-0.00012477		-0.00018095		 0.00006228
O		3.30528668		2.77146021		3.20953211		 0.00012477		 0.00018095		-0.00006228
O		3.30528668		0.34254026		3.20953211		 0.00012477		-0.00018095		-0.00006228
O		2.95673119		5.88546001		1.03027197		-0.00012477		 0.00018095		 0.00006228
O		4.16933660		1.55699990		1.32705916		-0.00019215		0.00000000		 0.00015507
O		2.09268128		4.67099970		2.91274625		 0.00019215		0.00000000		-0.00015507
O		6.47998487		1.55699990		0.49181725		-0.00026813		0.00000000		-0.00033866
O		-0.21796700		4.67099970		3.74798682		 0.00026813		0.00000000		 0.00033866
