# total energy = -18491.2754597 eV

CRYSTAL
PRIMVEC
		6.32339978		0.00000000		0.00000000
		0.00000000		6.22799864		0.00000000
		-0.39096316		0.00000000		4.23980161
PRIMECORD
   30 1
Mg		0.15009601		1.55699998		2.28101471		-0.00004639		0.00000000		 0.00013776
Mg		5.78234187		4.67099993		1.95879006		 0.00004639		0.00000000		-0.00013776
Mg		4.25756973		1.55699998		3.88789999		-0.00039617		0.00000000		-0.00062182
Mg		1.67486815		4.67099993		0.35190415		 0.00039617		0.00000000		 0.00062182
Mg		2.52558611		1.55699998		0.17807200		 0.00010709		-0.00000000		 0.00016901
Mg		3.40685177		4.67099993		4.06173214		-0.00010709		-0.00000000		-0.00016901
Si		0.00000000		0.00000000		0.00000000		0.00000000		0.00000000		0.00000000
Si		0.00000000		3.11399995		0.00000000		0.00000000		0.00000000		0.00000000
Si		1.86973762		3.12645579		2.35309072		 0.00012200		 0.00006549		 0.00013999
Si		4.06269962		3.10154412		1.88671279		-0.00012200		-0.00006549		-0.00013999
Si		4.06269962		0.01245583		1.88671279		-0.00012200		 0.00006549		-0.00013999
Si		1.86973762		6.21554408		2.35309072		 0.00012200		-0.00006549		 0.00013999
O		4.95339791		3.48768000		0.59357311		 0.00004550		 0.00012675		-0.00009593
O		0.97903997		2.74031991		3.64623166		-0.00004550		-0.00012675		 0.00009593
O		0.97903997		0.37368005		3.64623166		-0.00004550		 0.00012675		 0.00009593
O		4.95339791		5.85431986		0.59357311		 0.00004550		-0.00012675		-0.00009593
O		5.27689482		2.74654783		2.77707214		 0.00022050		-0.00002730		 0.00006377
O		0.65554306		3.48145208		1.46273326		-0.00022050		 0.00002730		-0.00006377
O		0.65554306		5.86054778		1.46273326		-0.00022050		-0.00002730		-0.00006377
O		5.27689482		0.36745213		2.77707214		 0.00022050		 0.00002730		 0.00006377
O		1.76723784		1.55699998		1.81887599		-0.00037290		-0.00000000		-0.00016637
O		4.16520067		4.67099993		2.42092815		 0.00037290		-0.00000000		 0.00016637
O		2.80111371		3.45653978		1.03027216		 0.00002725		 0.00035442		 0.00013436
O		3.13132481		2.77146012		3.20953198		-0.00002725		-0.00035442		-0.00013436
O		3.13132481		0.34253983		3.20953198		-0.00002725		 0.00035442		-0.00013436
O		2.80111371		5.88546008		1.03027216		 0.00002725		-0.00035442		 0.00013436
O		3.94989902		1.55699998		1.32705903		 0.00013111		-0.00000000		-0.00035217
O		1.98254012		4.67099993		2.91274574		-0.00013111		-0.00000000		 0.00035217
O		6.13893356		1.55699998		0.49181696		-0.00020110		0.00000000		 0.00033033
O		-0.20649505		4.67099993		3.74798718		 0.00020110		0.00000000		-0.00033033
