# total energy = -18519.7304334 eV

CRYSTAL
PRIMVEC
		7.55294988		0.00000000		0.00000000
		0.00000000		6.22799631		0.00000000
		-0.46698379		0.00000000		4.23980310
PRIMECORD
   30 1
Mg		0.17928211		1.55699983		2.28101503		 0.00020110		0.00000000		 0.00011202
Mg		6.90668626		4.67100025		1.95879033		-0.00020110		0.00000000		-0.00011202
Mg		5.08543061		1.55699983		3.88789983		-0.00024508		0.00000000		 0.00047921
Mg		2.00053699		4.67100025		0.35190402		 0.00024508		0.00000000		-0.00047921
Mg		3.01667311		1.55699983		0.17807212		-0.00030236		0.00000000		-0.00067777
Mg		4.06929525		4.67100025		4.06173173		 0.00030236		0.00000000		 0.00067777
Si		0.00000000		0.00000000		0.00000000		0.00000000		0.00000000		0.00000000
Si		0.00000000		3.11399966		0.00000000		0.00000000		0.00000000		0.00000000
Si		2.23329927		3.12645599		2.35309132		 0.00011843		 0.00023324		-0.00035366
Si		4.85266909		3.10154409		1.88671328		-0.00011843		-0.00023324		 0.00035366
Si		4.85266909		0.01245632		1.88671328		-0.00011843		 0.00023324		 0.00035366
Si		2.23329927		6.21554376		2.35309132		 0.00011843		-0.00023324		-0.00035366
O		5.91655873		3.48767959		0.59357274		 0.00029504		-0.00055728		 0.00036950
O		1.16940888		2.74031973		3.64623187		-0.00029504		 0.00055728		-0.00036950
O		1.16940888		0.37367993		3.64623187		-0.00029504		-0.00055728		-0.00036950
O		5.91655873		5.85432015		0.59357274		 0.00029504		 0.00055728		 0.00036950
O		6.30295782		2.74654790		2.77707163		-0.00022230		 0.00042364		 0.00030094
O		0.78300978		3.48145219		1.46273297		 0.00022230		-0.00042364		-0.00030094
O		0.78300978		5.86054756		1.46273297		 0.00022230		 0.00042364		-0.00030094
O		6.30295782		0.36745177		2.77707163		-0.00022230		-0.00042364		 0.00030094
O		2.11086671		1.55699983		1.81887571		-0.00012705		0.00000000		-0.00019592
O		4.97510090		4.67100025		2.42092814		 0.00012705		0.00000000		 0.00019592
O		3.34577402		3.45654029		1.03027221		 0.00029865		-0.00040205		-0.00012262
O		3.74019283		2.77145979		3.20953164		-0.00029865		 0.00040205		 0.00012262
O		3.74019283		0.34253987		3.20953164		-0.00029865		-0.00040205		 0.00012262
O		3.34577402		5.88546021		1.03027221		 0.00029865		 0.00040205		-0.00012262
O		4.71793428		1.55699983		1.32705934		 0.00048295		0.00000000		 0.00073538
O		2.36803408		4.67100025		2.91274603		-0.00048295		0.00000000		-0.00073538
O		7.33261523		1.55699983		0.49181713		 0.00022499		-0.00000000		-0.00054602
O		-0.24664687		4.67100025		3.74798672		-0.00022499		-0.00000000		 0.00054602
