# total energy = -34530.5276494 eV

CRYSTAL
PRIMVEC
		8.95857855		0.00000000		0.07272435
		0.00000000		5.24330142		0.00000000
		-0.35713702		0.00000000		12.96318329
PRIMECORD
   56 1
Si		1.27636328		2.47853053		4.66289420		-0.00010318		-0.00013344		 0.00013812
Si		7.32508012		2.76476995		8.37301157		 0.00009401		 0.00015253		-0.00014317
Si		7.50366264		2.47851372		1.89139470		 0.00005654		-0.00008095		-0.00006525
Si		1.09777515		2.76478117		11.14450266		-0.00004450		 0.00011408		 0.00008226
Si		5.75563761		5.10019059		4.69924516		-0.00004776		-0.00015437		 0.00016541
Si		2.84580019		0.14315101		8.33659707		 0.00005749		 0.00005090		 0.00002031
Si		3.02436683		5.10019339		1.85507924		 0.00007893		-0.00016684		-0.00020549
Si		5.57708125		0.14313046		11.18086204		-0.00010104		 0.00011445		 0.00009038
Mg		4.30071983		2.62165258		6.51795102		 0.00000384		 0.00000299		 0.00000137
Mg		4.47929208		2.62165258		0.03636124		-0.00000379		 0.00000196		-0.00000354
Mg		-0.17857038		0.00000000		6.48159071		-0.00000160		 0.00000044		 0.00000345
Mg		0.00000000		0.00000000		0.00000000		 0.00000214		 0.00000024		-0.00000454
O		0.31784176		1.17456788		4.81904552		-0.00003433		 0.00001950		 0.00013152
O		8.28359697		4.06873915		8.21685838		 0.00003981		-0.00002113		-0.00013353
O		8.46216080		1.17458190		1.73527141		 0.00006275		-0.00001332		-0.00014091
O		0.13928166		4.06872700		11.30063156		-0.00006683		 0.00000708		 0.00014288
O		4.79713851		3.79622420		4.85540489		-0.00005072		 0.00001223		 0.00013344
O		3.80429554		1.44706975		8.18050275		 0.00007256		 0.00002731		-0.00014792
O		3.98287900		3.79622046		1.69890643		 0.00003893		 0.00002487		-0.00012899
O		4.61856440		1.44708190		11.33699467		-0.00004394		-0.00000848		 0.00013864
O		2.62245990		2.25244498		5.54068169		-0.00010697		 0.00007712		-0.00001637
O		5.97898163		2.99086392		7.49522127		 0.00010778		-0.00008280		 0.00001640
O		6.15754827		2.25244218		1.01363524		 0.00011158		 0.00007652		 0.00001252
O		2.44389420		2.99086765		12.02226773		-0.00011739		-0.00008347		-0.00001170
O		7.10176319		4.87409476		5.57704948		-0.00014401		 0.00008596		-0.00003507
O		1.49969703		0.36920853		7.45886938		 0.00008585		-0.00007333		-0.00000955
O		1.67825245		4.87409009		0.97726652		 0.00013382		 0.00008542		 0.00003565
O		6.92317506		0.36921414		12.05862617		-0.00009168		-0.00007655		-0.00000161
O		0.52935348		3.68327393		5.50258901		-0.00001193		-0.00007267		 0.00000410
O		8.07208432		1.56003684		7.53331583		 0.00002360		 0.00006376		-0.00001023
O		8.25065002		3.68327673		1.05172325		 0.00002035		-0.00006808		-0.00001052
O		0.35079525		1.56003310		11.98417785		-0.00003329		 0.00005664		 0.00001943
O		5.00864742		1.06161854		5.53894838		-0.00002954		-0.00006019		 0.00001157
O		3.59279411		4.18168942		7.49695832		 0.00002774		 0.00005690		-0.00002327
O		3.77135888		1.06162508		1.01535920		 0.00001913		-0.00007238		 0.00000089
O		4.83008078		4.18168288		12.02054096		-0.00001542		 0.00006884		 0.00001161
O		1.53429879		3.09499719		3.20610762		 0.00013721		-0.00021099		-0.00017801
O		7.06714274		2.14830984		9.82979161		-0.00013684		 0.00020600		 0.00019050
O		7.24571125		3.09500186		3.34822426		-0.00012400		-0.00022968		 0.00011990
O		1.35573028		2.14830891		9.68768712		 0.00012441		 0.00021917		-0.00014520
O		6.01358900		0.47334461		3.24247447		 0.00013375		-0.00020237		-0.00019561
O		2.58784692		4.76994654		9.79346961		-0.00011480		 0.00025024		 0.00006892
O		2.76642478		0.47333526		3.31183031		-0.00014108		-0.00019124		 0.00022450
O		5.83501862		4.76996149		9.72405023		 0.00013197		 0.00021875		-0.00015142
Ca		1.52128914		2.47996577		1.11415518		 0.00032774		 0.00025901		 0.00020109
Ca		7.08015052		2.76333939		11.92175059		-0.00032422		-0.00025479		-0.00021100
Ca		7.25872090		2.47997044		5.44015614		-0.00032078		 0.00025685		-0.00020003
Ca		1.34272157		2.76333472		7.59574402		 0.00031696		-0.00025080		 0.00021014
Ca		6.00058309		5.10162116		1.15051456		 0.00031851		 0.00025264		 0.00020537
Ca		2.60085938		0.14168681		11.88538935		-0.00032156		-0.00025626		-0.00020512
Ca		2.77943256		5.10162209		5.40379677		-0.00032367		 0.00025372		-0.00020789
Ca		5.82200710		0.14168681		7.63210807		 0.00032806		-0.00025867		 0.00020321
Ca		-0.08928285		4.83137399		3.24079349		-0.00000370		-0.00004498		 0.00000284
Ca		-0.26785697		0.41193117		9.72238793		 0.00000518		 0.00003967		-0.00000171
Ca		4.39000455		2.20972048		3.27715660		 0.00000350		-0.00003605		-0.00000154
Ca		4.21143698		3.03358188		9.75874637		-0.00000558		 0.00004806		 0.00000277
