# total energy = -34532.129864 eV

CRYSTAL
PRIMVEC
		9.37427442		0.00000000		0.01153984
		0.00000000		5.26105502		0.00000000
		-0.46606937		0.00000934		13.21856415
PRIMECORD
   56 1
Si		1.24466376		2.52081400		4.79461657		 0.00024808		-0.00007117		-0.00012346
Si		7.66354128		2.74024756		8.43549116		-0.00024860		 0.00006989		 0.00012673
Si		7.89657597		2.52081400		1.82620909		-0.00024393		-0.00007004		 0.00012769
Si		1.01162814		2.74024663		11.40390051		 0.00024392		 0.00007026		-0.00012872
Si		5.93180284		5.15134338		4.80038462		 0.00024261		-0.00007581		-0.00011517
Si		2.97640127		0.10971912		8.42972217		-0.00024270		 0.00007331		 0.00012019
Si		3.20944156		5.15133965		1.82043823		-0.00024956		-0.00006730		 0.00013309
Si		5.69876255		0.10972285		11.40967136		 0.00024943		 0.00006593		-0.00013683
Mg		4.45410252		2.63053031		6.61505480		 0.00000007		 0.00000009		 0.00000008
Mg		4.68713721		2.63052751		0.00577179		-0.00000006		 0.00000012		-0.00000018
Mg		-0.23303468		0.00000000		6.60928301		-0.00000008		 0.00000002		 0.00000009
Mg		0.00000000		0.00000000		0.00000000		 0.00000013		 0.00000004		-0.00000017
O		0.55816570		1.04368180		4.94752552		-0.00007052		 0.00004151		 0.00025913
O		8.35003935		4.21737976		8.28258314		 0.00007102		-0.00004070		-0.00025949
O		8.58306749		1.04367806		1.67329827		 0.00006985		 0.00004220		-0.00025935
O		0.32513662		4.21738350		11.55681039		-0.00006996		-0.00004221		 0.00025954
O		5.24530197		3.67420838		4.95329731		-0.00006843		 0.00004477		 0.00025797
O		3.66290307		1.58685319		8.27681135		 0.00006890		-0.00004354		-0.00025851
O		3.89593122		3.67420464		1.66753021		 0.00007179		 0.00003969		-0.00026016
O		5.01227383		1.58685692		11.56257845		-0.00007202		-0.00003902		 0.00026073
O		2.64635998		2.54755186		5.65646039		 0.00013150		 0.00015639		-0.00005864
O		6.26184506		2.71350971		7.57364920		-0.00013208		-0.00015642		 0.00005808
O		6.49488162		2.54755840		0.96436900		-0.00013541		 0.00015643		 0.00005618
O		2.41332250		2.71350316		12.26573966		 0.00013574		-0.00015645		-0.00005587
O		7.33349626		5.17807937		5.66223125		 0.00013312		 0.00015647		-0.00005871
O		1.57470879		0.08298219		7.56787741		-0.00013407		-0.00015642		 0.00005777
O		1.80774441		5.17808404		0.95860001		-0.00013329		 0.00015644		 0.00005666
O		7.10045970		0.08297752		12.27150865		 0.00013394		-0.00015634		-0.00005575
O		0.27420622		3.58370894		5.60369109		 0.00017628		-0.00035321		 0.00010028
O		8.63399883		1.67735356		7.62641757		-0.00017581		 0.00035289		-0.00010084
O		8.86704099		3.58370520		1.01713643		-0.00017782		-0.00035435		-0.00009951
O		0.04116406		1.67735543		12.21297223		 0.00017765		 0.00035396		 0.00009994
O		4.96134156		0.95318329		5.60946007		 0.00017800		-0.00035468		 0.00009871
O		3.94686349		4.30787827		7.62064952		-0.00017794		 0.00035443		-0.00009931
O		4.17990378		0.95317769		1.01136558		-0.00017594		-0.00035279		-0.00010103
O		4.72830126		4.30788388		12.21874308		 0.00017575		 0.00035243		 0.00010167
O		1.44564012		3.10238736		3.30464104		-0.00047677		-0.00027959		-0.00029061
O		7.46256493		2.15867327		9.92546856		 0.00047707		 0.00028034		 0.00028861
O		7.69560242		3.10238923		3.31618742		 0.00047674		-0.00028075		 0.00028706
O		1.21260263		2.15867234		9.91392124		-0.00047678		 0.00028087		-0.00028668
O		6.13277546		0.47186171		3.31041189		-0.00047554		-0.00027748		-0.00029704
O		2.77542865		4.78919985		9.91969770		 0.00047590		 0.00027873		 0.00029366
O		3.00846427		0.47186265		3.31041750		 0.00047784		-0.00028211		 0.00028275
O		5.89973984		4.78919891		9.91969116		-0.00047812		 0.00028278		-0.00028049
Ca		1.61359198		2.51977308		1.16948381		-0.00027614		-0.00000559		 0.00015809
Ca		7.29461307		2.74128848		12.06062485		 0.00027619		 0.00000566		-0.00015845
Ca		7.52765149		2.51977682		5.45134371		 0.00027537		-0.00000528		-0.00015712
Ca		1.38055355		2.74128474		7.77876495		-0.00027543		 0.00000534		 0.00015731
Ca		6.30072825		5.15030059		1.17525560		-0.00027527		-0.00000553		 0.00015818
Ca		2.60747586		0.11076097		12.05485306		 0.00027526		 0.00000543		-0.00015833
Ca		2.84051429		5.15030246		5.44557473		 0.00027640		-0.00000550		-0.00015710
Ca		6.06769076		0.11075910		7.78453393		-0.00027631		 0.00000550		 0.00015723
Ca		-0.11651594		4.83596657		3.30464664		 0.00000030		-0.00005855		 0.00000002
Ca		-0.34955249		0.42509406		9.91392218		-0.00000037		 0.00005859		 0.00000001
Ca		4.57062033		2.20544093		3.31041469		-0.00000054		-0.00005835		 0.00000068
Ca		4.33758471		3.05562064		9.91969397		 0.00000059		 0.00005869		-0.00000060
