# total energy = -34531.6259922 eV

CRYSTAL
PRIMVEC
		9.73538263		0.00000000		-0.03289088
		0.00000000		5.34263749		0.00000000
		-0.54772658		0.00000000		13.57656081
PRIMECORD
   56 1
Si		1.24082431		2.59252827		4.95679383		-0.00009597		-0.00049101		-0.00037006
Si		7.94682893		2.75011109		8.58687517		 0.00009593		 0.00049084		 0.00037024
Si		8.22069596		2.59252827		1.79859757		 0.00009331		-0.00048963		 0.00036800
Si		0.96695728		2.75011109		11.74507143		-0.00009335		 0.00048976		-0.00036773
Si		6.10851656		5.26384701		4.94035026		-0.00009617		-0.00049087		-0.00037015
Si		3.07913668		0.07879234		8.60331874		 0.00009617		 0.00049117		 0.00036949
Si		3.35300465		5.26384701		1.81504207		 0.00009314		-0.00048953		 0.00036831
Si		5.83464860		0.07879234		11.72862600		-0.00009301		 0.00048958		-0.00036801
Mg		4.59382709		2.67131968		6.77183403		-0.00000006		-0.00000003		-0.00000003
Mg		4.86769132		2.67131874		-0.01644451		-0.00000002		-0.00000000		-0.00000003
Mg		-0.27386516		0.00000000		6.78827854		 0.00000009		 0.00000001		 0.00000003
Mg		0.00000000		0.00000000		0.00000000		-0.00000005		-0.00000007		-0.00000000
O		0.64617777		1.05378080		5.10409451		-0.00048761		-0.00025221		-0.00008542
O		8.54147548		4.28885856		8.43957449		 0.00048760		 0.00025233		 0.00008533
O		8.81533877		1.05378173		1.65129315		 0.00048784		-0.00025343		 0.00008604
O		0.37231448		4.28885762		11.89237585		-0.00048787		 0.00025330		-0.00008599
O		5.51387002		3.72509954		5.08765001		-0.00048750		-0.00025212		-0.00008534
O		3.67378323		1.61753982		8.45601899		 0.00048756		 0.00025199		 0.00008546
O		3.94764745		3.72510047		1.66773672		 0.00048797		-0.00025342		 0.00008594
O		5.24000579		1.61753888		11.87593135		-0.00048794		 0.00025336		-0.00008601
O		2.67091228		2.68574121		5.80427406		-0.00046753		-0.00005001		 0.00049568
O		6.51674097		2.65689815		7.73939494		 0.00046754		 0.00005001		-0.00049566
O		6.79060613		2.68574681		0.95111734		 0.00046926		-0.00005048		-0.00049444
O		2.39704712		2.65689254		12.59255166		-0.00046924		 0.00005047		 0.00049457
O		7.53860453		5.35705995		5.78782956		-0.00046750		-0.00005004		 0.00049573
O		1.64904965		-0.01442153		7.75583945		 0.00046745		 0.00005000		-0.00049570
O		1.92291481		5.35706556		0.96756184		 0.00046930		-0.00005048		-0.00049452
O		7.26473937		-0.01442620		12.57610716		-0.00046933		 0.00005049		 0.00049449
O		0.19275737		3.62193711		5.73926879		 0.00003207		-0.00008475		-0.00066038
O		8.99489587		1.72070225		7.80440021		-0.00003207		 0.00008474		 0.00066034
O		9.26876290		3.62193711		1.01612541		-0.00003129		-0.00008427		 0.00065981
O		-0.08110966		1.72070131		12.52754359		 0.00003145		 0.00008452		-0.00065994
O		5.06044962		0.95061837		5.72282428		 0.00003212		-0.00008484		-0.00066035
O		4.12720456		4.39202099		7.82084378		-0.00003211		 0.00008495		 0.00066054
O		4.40107159		0.95061930		1.03256898		-0.00003128		-0.00008434		 0.00065979
O		4.78658259		4.39202005		12.51109908		 0.00003116		 0.00008430		-0.00065976
O		1.41756420		3.14960819		3.43944973		-0.00008250		 0.00037241		-0.00007654
O		7.77008811		2.19303116		10.10421927		 0.00008247		-0.00037237		 0.00007635
O		8.04395701		3.14960819		3.31594167		 0.00008216		 0.00037200		 0.00007759
O		1.14369624		2.19303023		10.22772733		-0.00008221		-0.00037214		-0.00007787
O		6.28525645		0.47828945		3.42300522		-0.00008243		 0.00037234		-0.00007663
O		2.90239679		4.86434897		10.12066378		 0.00008248		-0.00037248		 0.00007698
O		3.17626476		0.47828945		3.33238618		 0.00008226		 0.00037197		 0.00007738
O		6.01138849		4.86434990		10.21128282		-0.00008224		-0.00037195		-0.00007758
Ca		1.69295711		2.61186848		1.24605882		 0.00025491		 0.00013980		 0.00075103
Ca		7.49469707		2.73076994		12.29761018		-0.00025494		-0.00013977		-0.00075094
Ca		7.76856317		2.61186848		5.50933257		-0.00025494		 0.00014000		-0.00075144
Ca		1.41909008		2.73076994		8.03433643		 0.00025496		-0.00014003		 0.00075142
Ca		6.56064842		5.28318816		1.22961432		 0.00025500		 0.00013979		 0.00075101
Ca		2.62700482		0.05945120		12.31405375		-0.00025498		-0.00013981		-0.00075104
Ca		2.90087185		5.28318722		5.52577801		-0.00025494		 0.00014004		-0.00075142
Ca		6.28678233		0.05945213		8.01789099		 0.00025491		-0.00014003		 0.00075145
Ca		-0.13693258		4.90951132		3.39413974		 0.00000025		 0.00003207		-0.00000020
Ca		-0.41079774		0.43312803		10.18241827		-0.00000024		-0.00003207		 0.00000016
Ca		4.73075874		2.23819258		3.37769430		 0.00000024		 0.00003202		-0.00000016
Ca		4.45689544		3.10444677		10.16597284		-0.00000026		-0.00003207		 0.00000019
