# total energy = -34531.7363604 eV

CRYSTAL
PRIMVEC
		9.21606181		0.00000000		0.04280486
		0.00000000		5.26115781		0.00000000
		-0.41354675		0.00000934		13.10954770
PRIMECORD
   56 1
Si		1.26384045		2.49810808		4.73738457		-0.00042083		-0.00013836		 0.00069143
Si		7.53867741		2.76306187		8.41496706		 0.00042085		 0.00013854		-0.00069182
Si		7.74544892		2.49810061		1.86017546		 0.00041719		-0.00011964		-0.00062799
Si		1.05706895		2.76307028		11.29217617		-0.00041717		 0.00012004		 0.00062873
Si		5.87187136		5.12868886		4.75878793		-0.00042071		-0.00013868		 0.00069167
Si		2.93064744		0.13248203		8.39356370		 0.00042070		 0.00013818		-0.00069111
Si		3.13741895		5.12868138		1.83877677		 0.00041755		-0.00012021		-0.00062881
Si		5.66509986		0.13248951		11.31357487		-0.00041774		 0.00012028		 0.00062900
Mg		4.40125847		2.63058544		6.57617628		-0.00000001		 0.00000003		-0.00000003
Mg		4.60802997		2.63057984		0.02140337		-0.00000001		 0.00000001		 0.00000001
Mg		-0.20677150		0.00000000		6.55477292		-0.00000000		-0.00000002		-0.00000001
Mg		0.00000000		0.00000000		0.00000000		 0.00000004		-0.00000001		 0.00000002
O		0.45187116		1.09184545		4.88990294		-0.00022173		 0.00054158		 0.00002318
O		8.35064671		4.16932544		8.26244869		 0.00022169		-0.00054170		-0.00002310
O		8.55741728		1.09184451		1.70767671		 0.00022560		 0.00053407		-0.00003128
O		0.24510059		4.16932637		11.44467586		-0.00022547		-0.00053428		 0.00003116
O		5.05990207		3.72242622		4.91130631		-0.00022173		 0.00054169		 0.00002315
O		3.74261674		1.53874467		8.24104626		 0.00022182		-0.00054148		-0.00002318
O		3.94938637		3.72242529		1.68627708		 0.00022534		 0.00053448		-0.00003122
O		4.85313150		1.53874560		11.46607455		-0.00022530		-0.00053458		 0.00003113
O		2.64729252		2.41054826		5.60625228		-0.00058804		 0.00006980		-0.00016196
O		6.15522535		2.85062262		7.54610029		 0.00058821		-0.00006984		 0.00016212
O		6.36200059		2.41054453		0.99133017		 0.00057571		 0.00006816		 0.00015096
O		2.44051727		2.85062636		12.16102146		-0.00057588		-0.00006812		-0.00015117
O		7.25532249		5.04112810		5.62765564		-0.00058826		 0.00006973		-0.00016192
O		1.54719538		0.22004279		7.52469692		 0.00058814		-0.00006974		 0.00016189
O		1.75396969		5.04112530		0.96993055		 0.00057576		 0.00006796		 0.00015092
O		7.04854818		0.22004559		12.18242109		-0.00057575		-0.00006804		-0.00015097
O		0.38547363		3.62008326		5.56988076		-0.00021646		-0.00026468		 0.00020586
O		8.41704423		1.64108763		7.58247181		 0.00021636		 0.00026476		-0.00020569
O		8.62381294		3.62007672		1.02770263		 0.00022290		-0.00025735		-0.00021618
O		0.17870493		1.64109417		12.12464900		-0.00022286		 0.00025737		 0.00021603
O		4.99350454		0.98950249		5.59128039		-0.00021663		-0.00026465		 0.00020601
O		3.80901333		4.27166840		7.56107218		 0.00021659		 0.00026463		-0.00020589
O		4.01578297		0.98949688		1.00630020		 0.00022286		-0.00025744		-0.00021618
O		4.78673490		4.27167401		12.14605237		-0.00022279		 0.00025742		 0.00021602
O		1.47928226		3.09594747		3.26032245		 0.00008303		 0.00009759		-0.00069824
O		7.32323561		2.16522342		9.89202919		-0.00008308		-0.00009765		 0.00069850
O		7.53000618		3.09595121		3.33727122		-0.00007789		 0.00008336		 0.00064991
O		1.27251169		2.16521968		9.81508135		 0.00007789		-0.00008347		-0.00065043
O		6.08731223		0.46536670		3.28172207		 0.00008298		 0.00009771		-0.00069858
O		2.71520564		4.79580419		9.87062956		-0.00008278		-0.00009751		 0.00069806
O		2.92197528		0.46537137		3.31586785		-0.00007785		 0.00008354		 0.00065059
O		5.88054259		4.79579952		9.83648471		 0.00007779		-0.00008358		-0.00065059
Ca		1.55810450		2.51298840		1.13879344		 0.00010048		-0.00029812		 0.00019611
Ca		7.24441337		2.74818249		12.01355819		-0.00010051		 0.00029815		-0.00019613
Ca		7.45118394		2.51299121		5.45878247		-0.00010055		-0.00029810		-0.00018614
Ca		1.35133300		2.74817968		7.69357010		 0.00010053		 0.00029816		 0.00018615
Ca		6.16613447		5.14356824		1.16019774		 0.00010041		-0.00029817		 0.00019612
Ca		2.63638340		0.11760265		11.99215482		-0.00010041		 0.00029813		-0.00019610
Ca		2.84315397		5.14357198		5.43738284		-0.00010056		-0.00029815		-0.00018619
Ca		5.95936390		0.11759891		7.71496879		 0.00010062		 0.00029812		 0.00018614
Ca		-0.10338575		4.83177298		3.27738833		 0.00000009		 0.00049915		 0.00000600
Ca		-0.31015726		0.42939884		9.83216124		-0.00000008		-0.00049913		-0.00000598
Ca		4.50464422		2.20119221		3.29878796		 0.00000012		 0.00049925		 0.00000594
Ca		4.29787365		3.05997868		9.85356461		-0.00000015		-0.00049918		-0.00000591
