# total energy = -34532.1104922 eV

CRYSTAL
PRIMVEC
		9.60572529		0.00000000		-0.01634266
		0.00000000		5.31106411		0.00000000
		-0.51734924		-0.00000934		13.43698014
PRIMECORD
   56 1
Si		1.24739688		2.55973457		4.89214737		-0.00030717		 0.00014316		-0.00018918
Si		7.84097169		2.75131927		8.52848545		 0.00030712		-0.00014339		 0.00019033
Si		8.09964631		2.55974297		1.81001780		 0.00031329		 0.00012501		 0.00012511
Si		0.98872226		2.75131086		11.61061688		-0.00031304		-0.00012559		-0.00012671
Si		6.05025859		5.21526662		4.88397230		-0.00030752		 0.00014275		-0.00018852
Si		3.03811092		0.09578721		8.53665958		 0.00030737		-0.00014355		 0.00019041
Si		3.29678554		5.21527410		1.81818726		 0.00031300		 0.00012518		 0.00012557
Si		5.79158304		0.09577974		11.60244556		-0.00031293		-0.00012570		-0.00012707
Mg		4.54418429		2.65552645		6.71031594		-0.00000002		 0.00000004		 0.00000003
Mg		4.80286078		2.65553206		-0.00817507		-0.00000001		 0.00000002		-0.00000007
Mg		-0.25867649		0.00000000		6.71849101		 0.00000004		 0.00000003		 0.00000006
Mg		0.00000000		0.00000000		0.00000000		-0.00000000		-0.00000000		 0.00000001
O		0.62638624		1.03981432		5.04607668		-0.00025350		-0.00010853		-0.00002712
O		8.46198327		4.27123858		8.37455613		 0.00025337		 0.00010858		 0.00002694
O		8.72066163		1.03981525		1.65606793		 0.00025032		-0.00010016		 0.00003446
O		0.36770789		4.27123858		11.76456489		-0.00025054		 0.00010046		-0.00003431
O		5.42924702		3.69534638		5.03790162		-0.00025308		-0.00010808		-0.00002714
O		3.65912156		1.61570746		8.38273120		 0.00025354		 0.00010857		 0.00002699
O		3.91779991		3.69534638		1.66423926		 0.00025044		-0.00010021		 0.00003442
O		5.17056773		1.61570652		11.75639356		-0.00025062		 0.00010050		-0.00003419
O		2.67226809		2.63516307		5.73803725		-0.00004055		-0.00001421		-0.00003561
O		6.41609955		2.67589076		7.68259650		 0.00004030		 0.00001416		 0.00003521
O		6.67477510		2.63516494		0.96410176		 0.00004971		-0.00001337		 0.00004533
O		2.41359347		2.67588796		12.45653106		-0.00004929		 0.00001343		-0.00004510
O		7.47512980		5.29069419		5.72986218		-0.00004059		-0.00001417		-0.00003551
O		1.61323877		0.02035871		7.69077063		 0.00004022		 0.00001423		 0.00003522
O		1.87191433		5.29069699		0.97227215		 0.00004958		-0.00001336		 0.00004543
O		7.21645425		0.02035684		12.44836067		-0.00004944		 0.00001335		-0.00004501
O		0.23016234		3.59820989		5.69255066		-0.00023850		 0.00034407		-0.00024617
O		8.85820530		1.71284301		7.72808309		 0.00023877		-0.00034436		 0.00024610
O		9.11688460		3.59821643		1.00958835		 0.00023103		 0.00033762		 0.00025676
O		-0.02851602		1.71283834		12.41104540		-0.00023129		-0.00033769		-0.00025661
O		5.03302405		0.94267877		5.68437933		-0.00023847		 0.00034403		-0.00024633
O		4.05534546		4.36837600		7.73625255		 0.00023861		-0.00034406		 0.00024594
O		4.31402382		0.94268344		1.01776248		 0.00023120		 0.00033752		 0.00025674
O		4.77434569		4.36836946		12.40286940		-0.00023130		-0.00033769		-0.00025644
O		1.42072621		3.12262085		3.38251580		-0.00000567		 0.00002963		-0.00006354
O		7.66764143		2.18843298		10.03811795		 0.00000564		-0.00002950		 0.00006303
O		7.92631979		3.12261618		3.31961293		 0.00000121		 0.00004310		 0.00011114
O		1.16204785		2.18843672		10.10101989		-0.00000110		-0.00004285		-0.00011033
O		6.22358792		0.46708880		3.37434541		-0.00000552		 0.00002988		-0.00006420
O		2.86478159		4.84396410		10.04628834		 0.00000574		-0.00002943		 0.00006287
O		3.12345995		0.46708413		3.32778706		 0.00000111		 0.00004309		 0.00011101
O		5.96491050		4.84396970		10.09284482		-0.00000149		-0.00004271		-0.00010995
Ca		1.66129123		2.57556050		1.21131129		 0.00006521		 0.00008603		 0.00015708
Ca		7.42707735		2.73549333		12.20932153		-0.00006528		-0.00008608		-0.00015717
Ca		7.68575384		2.57555676		5.49083426		-0.00006563		 0.00008579		-0.00016615
Ca		1.40261380		2.73549614		7.92979949		 0.00006564		-0.00008585		 0.00016641
Ca		6.46415294		5.23109255		1.20313622		 0.00006535		 0.00008611		 0.00015708
Ca		2.62421657		0.07996128		12.21749566		-0.00006528		-0.00008604		-0.00015719
Ca		2.88289400		5.23108882		5.49900465		-0.00006560		 0.00008584		-0.00016629
Ca		6.20547551		0.07996502		7.92162817		 0.00006562		-0.00008578		 0.00016629
Ca		-0.12933965		4.88008520		3.35924550		 0.00000017		 0.00003728		-0.00000573
Ca		-0.38801520		0.43096770		10.07773371		-0.00000012		-0.00003716		 0.00000571
Ca		4.67352300		2.22455314		3.35107324		 0.00000010		 0.00003726		-0.00000567
Ca		4.41484745		3.08649975		10.06955864		-0.00000011		-0.00003715		 0.00000567
