# total energy = -7175.10958742 eV	

CRYSTAL	
PRIMVEC	
		2.95639977		0.00000000		0.00000000	
		-1.47819989		2.69507177		0.00000000	
		0.00000000		0.00000000		12.76799882	
PRIMCOORD
   12 1	
O		0.00000000		1.79671382		5.27829052		0.00000000		 0.00044266		-0.00051756	
O		1.47819989		0.89835706		7.48970830		0.00000000		-0.00044266		 0.00051756	
O		0.00000000		1.79671382		10.41613313		0.00000000		 0.00041215		 0.00039393	
O		1.47819989		0.89835706		2.35186480		0.00000000		-0.00041215		-0.00039393	
O		0.00000000		0.00000000		0.00000000		0.00000000		0.00000000		0.00000000	
H		0.00000000		1.79671382		4.28877081		0.00000000		 0.00025060		 0.00002022	
H		1.47819989		0.89835706		8.47922742		0.00000000		-0.00025060		-0.00002022	
H		0.00000000		1.79671382		9.42533625		0.00000000		-0.00028171		 0.00007845	
H		1.47819989		0.89835706		3.34266168		0.00000000		 0.00028171		-0.00007845	
Mg		0.00000000		0.00000000		6.38399941		0.00000000		0.00000000		0.00000000	
Mg		1.47819989		0.89835706		11.53333325		0.00000000		-0.00083768		-0.00040818	
Mg		0.00000000		1.79671382		1.23466586		0.00000000		 0.00083768		 0.00040818	
