# total energy = -18386.7197134 eV	

CRYSTAL	
PRIMVEC	
		11.10980369		0.00000000		1.77757354	
		0.00000000		6.38940202		0.00000000	
		0.77250096		0.00000000		4.82809725	
PRIMCOORD
   28 1	
Mg		0.00000000		0.00000000		0.00000000		0.00000000		0.00000000		0.00000000	
Mg		5.94114782		0.00000000		3.30283427		0.00000000		0.00000000		0.00000000	
Mg		0.00000000		3.19469989		0.00000000		0.00000000		0.00000000		0.00000000	
Mg		5.94114782		3.19469989		3.30283427		0.00000000		0.00000000		0.00000000	
Ca		3.83071255		1.59734994		5.21132906		 0.00049887		0.00000000		-0.00029392	
Ca		8.05158309		4.79204983		1.39433948		-0.00049887		0.00000000		 0.00029392	
Ca		2.84809043		4.79204983		2.70185868		-0.00045280		0.00000000		 0.00009149	
Ca		9.03420409		1.59734994		3.90380986		 0.00045280		0.00000000		-0.00009149	
Si		1.22359607		1.59734994		2.12923137		 0.00006649		-0.00000000		-0.00082013	
Si		10.65869958		4.79204983		4.47643717		-0.00006649		-0.00000000		 0.00082013	
Si		5.35251244		4.79204983		5.14210775		-0.00006353		-0.00000000		-0.00020127	
Si		6.52978320		1.59734994		1.46355966		 0.00006353		-0.00000000		 0.00020127	
O		1.43894787		1.59734994		3.73837810		 0.00005244		0.00000000		-0.00069262	
O		10.44334778		4.79204983		2.86729044		-0.00005244		0.00000000		 0.00069262	
O		4.88180328		4.79204983		1.93698484		 0.00010825		0.00000000		-0.00027597	
O		7.00049124		1.59734994		4.66868370		-0.00010825		0.00000000		 0.00027597	
O		5.17844545		1.59734994		1.98585852		-0.00003571		0.00000000		-0.00002513	
O		6.70385019		4.79204983		4.61981002		 0.00003571		0.00000000		 0.00002513	
O		1.14277149		4.79204983		3.69240045		 0.00019926		0.00000000		 0.00024035	
O		10.73952528		1.59734994		2.91326696		-0.00019926		0.00000000		-0.00024035	
O		1.85015218		0.29199546		1.58176379		 0.00000361		-0.00025305		 0.00007984	
O		10.03214347		6.09740319		5.02390363		-0.00000361		 0.00025305		-0.00007984	
O		4.51324179		6.09740319		4.36010861		-0.00010797		 0.00018448		 0.00002960	
O		7.36905385		0.29199546		2.24555881		 0.00010797		-0.00018448		-0.00002960	
O		10.03214347		3.48669535		5.02390363		-0.00000361		-0.00025305		-0.00007984	
O		1.85015218		2.90270443		1.58176379		 0.00000361		 0.00025305		 0.00007984	
O		7.36905385		2.90270443		2.24555881		 0.00010797		 0.00018448		-0.00002960	
O		4.51324179		3.48669535		4.36010861		-0.00010797		-0.00018448		 0.00002960	
