# total energy = -18387.5700909 eV	

CRYSTAL	
PRIMVEC	
		11.10980144		0.00000000		1.33317349	
		0.00000000		6.38939717		0.00000000	
		0.57937015		0.00000000		4.82810326	
PRIMCOORD
   28 1	
Mg		0.00000000		0.00000000		0.00000000		0.00000000		0.00000000		0.00000000	
Mg		5.84458580		0.00000000		3.08063837		0.00000000		0.00000000		0.00000000	
Mg		0.00000000		3.19469970		0.00000000		0.00000000		0.00000000		0.00000000	
Mg		5.84458580		3.19469970		3.08063837		0.00000000		0.00000000		0.00000000	
Ca		3.64194419		1.59734985		5.08830287		 0.00052090		0.00000000		-0.00026348	
Ca		8.04722741		4.79204955		1.07297276		-0.00052090		0.00000000		 0.00026348	
Ca		2.75588427		4.79204955		2.60268765		 0.00057245		0.00000000		 0.00041921	
Ca		8.93328733		1.59734985		3.55858798		-0.00057245		0.00000000		-0.00041921	
Si		1.14422640		1.59734985		2.09298559		 0.00060150		-0.00000000		-0.00029362	
Si		10.54494632		4.79204955		4.06829004		-0.00060150		-0.00000000		 0.00029362	
Si		5.17658134		4.79204955		4.95615706		 0.00000421		0.00000000		-0.00013472	
Si		6.51259025		1.59734985		1.20511856		-0.00000421		0.00000000		 0.00013472	
O		1.29493559		1.59734985		3.70386243		 0.00035066		0.00000000		-0.00013356	
O		10.39423712		4.79204955		2.45741431		-0.00035066		0.00000000		 0.00013356	
O		4.83435371		4.79204955		1.74930444		-0.00090530		0.00000000		-0.00006541	
O		6.85481788		1.59734985		4.41197230		 0.00090530		-0.00000000		 0.00006541	
O		5.13093712		1.59734985		1.78632156		 0.00013247		0.00000000		-0.00029744	
O		6.55823448		4.79204955		4.37495407		-0.00013247		0.00000000		 0.00029744	
O		0.99870018		4.79204955		3.66974116		-0.00042666		-0.00000000		-0.00009401	
O		10.69047141		1.59734985		2.49153447		 0.00042666		-0.00000000		 0.00009401	
O		1.79737119		0.29199571		1.51620245		 0.00069385		-0.00001820		-0.00020853	
O		9.89180040		6.09740370		4.64507318		-0.00069385		 0.00001820		 0.00020853	
O		4.36389884		6.09740370		4.20347380		 0.00026470		 0.00023364		 0.00003104	
O		7.32527276		0.29199571		1.95780183		-0.00026470		-0.00023364		-0.00003104	
O		9.89180040		3.48669541		4.64507318		-0.00069385		-0.00001820		 0.00020853	
O		1.79737119		2.90270399		1.51620245		 0.00069385		 0.00001820		-0.00020853	
O		7.32527276		2.90270399		1.95780183		-0.00026470		 0.00023364		-0.00003104	
O		4.36389884		3.48669541		4.20347380		 0.00026470		-0.00023364		 0.00003104	
