# total energy = -18386.7197156 eV	

CRYSTAL	
PRIMVEC	
		11.10980369		0.00000000		-1.77757354	
		0.00000000		6.38940202		0.00000000	
		-0.77250096		0.00000000		4.82809725	
PRIMCOORD
   28 1	
Mg		0.00000000		0.00000000		0.00000000		0.00000000		0.00000000		0.00000000	
Mg		5.16865136		0.00000000		1.52526636		0.00000000		0.00000000		0.00000000	
Mg		0.00000000		3.19469989		0.00000000		0.00000000		0.00000000		0.00000000	
Mg		5.16865136		3.19469989		1.52526636		0.00000000		0.00000000		0.00000000	
Ca		2.32056093		1.59734994		4.22712503		 0.00051869		0.00000000		-0.00004310	
Ca		8.01674404		4.79204983		-1.17659345		-0.00051869		0.00000000		 0.00004310	
Ca		2.11043527		4.79204983		1.90849366		-0.00043987		0.00000000		-0.00023308	
Ca		8.22686858		1.59734994		1.14203792		 0.00043987		0.00000000		 0.00023308	
Si		0.58863538		1.59734994		1.83927348		 0.00003995		0.00000000		-0.00026244	
Si		9.74866847		4.79204983		1.21125810		-0.00003995		-0.00000000		 0.00026244	
Si		3.94505530		4.79204983		3.65449660		-0.00001160		0.00000000		-0.00064008	
Si		6.39224743		1.59734994		-0.60396501		 0.00001160		0.00000000		 0.00064008	
O		0.28684808		1.59734994		3.46225120		-0.00000848		0.00000000		-0.00032800	
O		10.05045689		4.79204983		-0.41171848		 0.00000848		0.00000000		 0.00032800	
O		4.50219995		4.79204983		0.43554383		-0.00012636		0.00000000		-0.00041410	
O		5.83510390		1.59734994		2.61498776		 0.00012636		0.00000000		 0.00041410	
O		4.79837745		1.59734994		0.38956731		-0.00019883		0.00000000		 0.00044778	
O		5.53892640		4.79204983		2.66096540		 0.00019883		0.00000000		-0.00044778	
O		-0.00979296		4.79204983		3.51112488		 0.00006053		0.00000000		-0.00000206	
O		10.34709794		1.59734994		-0.46059217		-0.00006053		0.00000000		 0.00000206	
O		1.42790603		0.29199546		1.05727546		-0.00001332		-0.00001327		-0.00007153	
O		8.90939782		6.09740319		1.99325725		 0.00001332		 0.00001327		 0.00007153	
O		3.31850031		6.09740319		3.10703014		 0.00013226		 0.00029907		-0.00004581	
O		7.01880354		0.29199546		-0.05649856		-0.00013226		-0.00029907		 0.00004581	
O		8.90939782		3.48669535		1.99325725		 0.00001332		-0.00001327		 0.00007153	
O		1.42790603		2.90270443		1.05727546		-0.00001332		 0.00001327		-0.00007153	
O		7.01880354		2.90270443		-0.05649856		-0.00013226		 0.00029907		 0.00004581	
O		3.31850031		3.48669535		3.10703014		 0.00013226		-0.00029907		-0.00004581	
