# total energy = -18389.5117038 eV	

CRYSTAL	
PRIMVEC	
		11.10979641		0.00000000		-0.88878148	
		0.00000000		6.38939653		0.00000000	
		-0.38625131		0.00000000		4.82809685	
PRIMCOORD
   28 1	
Mg		0.00000000		0.00000000		0.00000000		0.00000000		0.00000000		0.00000000	
Mg		5.36177589		0.00000000		1.96965769		0.00000000		0.00000000		0.00000000	
Mg		0.00000000		3.19469938		0.00000000		0.00000000		0.00000000		0.00000000	
Mg		5.36177589		3.19469938		1.96965769		0.00000000		0.00000000		0.00000000	
Ca		2.69809851		1.59735025		4.47317608		 0.00054656		-0.00000000		 0.00035520	
Ca		8.02545327		4.79204963		-0.53385848		-0.00054656		0.00000000		-0.00035520	
Ca		2.29484839		4.79204963		2.10683508		 0.00001986		0.00000000		 0.00036724	
Ca		8.42870228		1.59735025		1.83248140		-0.00001986		0.00000000		-0.00036724	
Si		0.74737445		1.59735025		1.91176345		-0.00007332		0.00000000		 0.00016285	
Si		9.97617622		4.79204963		2.02755303		 0.00007332		0.00000000		-0.00016285	
Si		4.29691994		4.79204963		4.02640024		 0.00011963		-0.00000000		 0.00059348	
Si		6.42663185		1.59735025		-0.08708376		-0.00011963		0.00000000		-0.00059348	
O		0.57487316		1.59735025		3.53128169		 0.00012510		0.00000000		 0.00028332	
O		10.14867974		4.79204963		0.40803368		-0.00012510		0.00000000		-0.00028332	
O		4.59710060		4.79204963		0.81090374		 0.00058308		0.00000000		 0.00042113	
O		6.12645118		1.59735025		3.12841163		-0.00058308		0.00000000		-0.00042113	
O		4.89339490		1.59735025		0.78863990		 0.00068724		0.00000000		 0.00000087	
O		5.83015799		4.79204963		3.15067547		-0.00068724		0.00000000		-0.00000087	
O		0.27834815		4.79204963		3.55644331		-0.00074262		0.00000000		-0.00020963	
O		10.44520475		1.59735025		0.38287318		 0.00074262		0.00000000		 0.00020963	
O		1.53346654		0.29199556		1.18839708		-0.00040687		-0.00073462		 0.00027496	
O		9.19008413		6.09740320		2.75091940		 0.00040687		 0.00073462		-0.00027496	
O		3.61718628		6.09740320		3.42030020		-0.00037047		-0.00049632		-0.00003018	
O		7.10636662		0.29199556		0.51901629		 0.00037047		 0.00049632		 0.00003018	
O		9.19008413		3.48669606		2.75091940		 0.00040687		-0.00073462		-0.00027496	
O		1.53346654		2.90270382		1.18839708		-0.00040687		 0.00073462		 0.00027496	
O		7.10636662		2.90270382		0.51901629		 0.00037047		-0.00049632		 0.00003018	
O		3.61718628		3.48669606		3.42030020		-0.00037047		 0.00049632		-0.00003018	
