# total energy = -4139.33651382 eV

CRYSTAL
PRIMVEC
		3.42268318		0.00001323		0.00000000
		-1.71133001		2.96413456		0.00000000
		0.00000000		0.00000000		4.11739457
PRIMECORD
   4 1
Mg		0.00000364		1.97609423		-0.19640880		 0.00000024		 0.00000001		 0.00007441
Mg		1.71134887		0.98805191		1.86228915		-0.00000024		-0.00000003		 0.00007412
O		0.00000000		1.97609522		1.86230635		 0.00000030		-0.00000014		-0.00007459
O		1.71135019		0.98805125		3.92100297		-0.00000030		 0.00000016		-0.00007394
