# total energy = -12349.7455407 eV	

CRYSTAL	
PRIMVEC	
		4.55602307		0.00000000		0.00000000	
		0.00000000		4.66479812		0.00000000	
		0.00000000		0.00000000		6.45439943	
PRIMCOORD
   20 1	
O		0.48703887		2.21811213		1.61359986		 0.00045710		 0.00026158		-0.00000000	
O		4.06898421		2.44668781		4.84080003		-0.00045710		-0.00026158		-0.00000000	
O		2.76504995		0.11428784		4.84080003		 0.00045710		-0.00026158		0.00000000	
O		1.79097221		4.55051302		1.61359986		-0.00045710		 0.00026158		0.00000000	
O		0.85789914		0.90450498		3.62801812		 0.00023984		-0.00004837		-0.00006911	
O		3.69812302		3.76029496		2.82638222		-0.00023984		 0.00004837		 0.00006911	
O		3.13591022		1.42789499		2.82638222		 0.00023984		 0.00004837		 0.00006911	
O		1.42011194		3.23690495		3.62801812		-0.00023984		-0.00004837		-0.00006911	
O		3.69812302		3.76029496		0.40081795		-0.00023984		 0.00004837		-0.00006911	
O		0.85789914		0.90450498		6.05358193		 0.00023984		-0.00004837		 0.00006911	
O		1.42011194		3.23690495		6.05358193		-0.00023984		-0.00004837		 0.00006911	
O		3.13591022		1.42789499		0.40081795		 0.00023984		 0.00004837		-0.00006911	
Mg		2.36093116		2.71351404		1.61359986		-0.00029708		-0.00017345		-0.00000000	
Mg		2.19509192		1.95128591		4.84080003		 0.00029708		 0.00017345		-0.00000000	
Mg		0.08292008		4.28368588		4.84080003		-0.00029708		 0.00017345		-0.00000000	
Mg		4.47310300		0.38111406		1.61359986		 0.00029708		-0.00017345		-0.00000000	
Si		2.27801108		0.00000000		3.22720017		0.00000000		0.00000000		0.00000000	
Si		0.00000000		2.33239997		3.22720017		0.00000000		0.00000000		-0.00000000	
Si		2.27801108		0.00000000		0.00000000		0.00000000		-0.00000000		0.00000000	
Si		0.00000000		2.33239997		0.00000000		0.00000000		0.00000000		-0.00000000	
