# total energy = -12351.7920194 eV	

CRYSTAL	
PRIMVEC	
		4.88938989		0.00000000		0.00000000	
		0.00000000		4.66480066		0.00000000	
		0.00000000		0.00000000		6.45440047	
PRIMCOORD
   20 1	
O		0.52267578		2.21811182		1.61359987		-0.00020210		 0.00006675		-0.00000000	
O		4.36671411		2.44668786		4.84080011		 0.00020210		-0.00006675		-0.00000000	
O		2.96737072		0.11428802		4.84080011		-0.00020210		-0.00006675		0.00000000	
O		1.92201917		4.55051312		1.61359987		 0.00020210		 0.00006675		0.00000000	
O		0.92067212		0.90450486		3.62801775		-0.00021272		-0.00071891		-0.00040263	
O		3.96871777		3.76029482		2.82638174		 0.00021272		 0.00071891		 0.00040263	
O		3.36536706		1.42789498		2.82638174		-0.00021272		 0.00071891		 0.00040263	
O		1.52402283		3.23690470		3.62801775		 0.00021272		-0.00071891		-0.00040263	
O		3.96871777		3.76029482		0.40081800		 0.00021272		 0.00071891		-0.00040263	
O		0.92067212		0.90450486		6.05358198		-0.00021272		-0.00071891		 0.00040263	
O		1.52402283		3.23690470		6.05358198		 0.00021272		-0.00071891		 0.00040263	
O		3.36536706		1.42789498		0.40081800		-0.00021272		 0.00071891		-0.00040263	
Mg		2.53368184		2.71351409		1.61359987		 0.00037427		-0.00048516		-0.00000000	
Mg		2.35570805		1.95128608		4.84080011		-0.00037427		 0.00048516		-0.00000000	
Mg		0.08898690		4.28368591		4.84080011		 0.00037427		 0.00048516		0.00000000	
Mg		4.80040299		0.38111376		1.61359987		-0.00037427		-0.00048516		0.00000000	
Si		2.44469495		0.00000000		3.22719975		0.00000000		0.00000000		0.00000000	
Si		0.00000000		2.33239984		3.22719975		0.00000000		0.00000000		-0.00000000	
Si		2.44469495		0.00000000		0.00000000		0.00000000		0.00000000		0.00000000	
Si		0.00000000		2.33239984		0.00000000		0.00000000		0.00000000		0.00000000	
