# total energy = -66805.0450779 eV	

CRYSTAL	
PRIMVEC	
		18.34340159		0.00000000		-2.20120376	
		0.00000000		6.73129199		0.00000000	
		-1.30612700		0.00000000		10.88439787	
PRIMCOORD
   112 1	
Ca		13.86945334		6.72409598		0.81997773		 0.00017253		-0.00001732		-0.00013536	
Ca		3.16781755		0.00720340		7.86321453		-0.00017253		 0.00001732		 0.00013536	
Ca		3.86899919		0.00720340		2.02003237		-0.00012401		 0.00059115		-0.00032935	
Ca		13.16826985		6.72409598		6.66315989		 0.00012401		-0.00059115		 0.00032935	
Ca		12.99258000		3.35844629		1.32041003		-0.00017253		-0.00001732		 0.00013536	
Ca		4.04468904		3.37285309		7.36278224		 0.00017253		 0.00001732		-0.00013536	
Ca		4.64963626		3.37285309		2.32156283		 0.00012401		 0.00059115		 0.00032935	
Ca		12.38763464		3.35844629		6.36162943		-0.00012401		-0.00059115		-0.00032935	
Ca		6.57764281		1.06469018		7.24184120		 0.00002193		 0.00017226		-0.00034505	
Ca		10.45962808		5.66660920		1.44135107		-0.00002193		-0.00017226		 0.00034505	
Ca		9.81011547		5.66660920		6.85394566		 0.00040272		-0.00023318		-0.00007814	
Ca		7.22715357		1.06469018		1.82924660		-0.00040272		 0.00023318		 0.00007814	
Ca		0.63486563		4.43033986		7.98415557		-0.00002193		 0.00017226		 0.00034505	
Ca		16.40240711		2.30095951		0.69903854		 0.00002193		-0.00017226		-0.00034505	
Ca		15.74578902		2.30095951		6.17084366		-0.00040272		-0.00023318		 0.00007814	
Ca		1.29148187		4.43033986		2.51234861		 0.00040272		 0.00023318		-0.00007814	
Ca		6.10413228		5.40388733		-0.73249676		 0.00039859		 0.00021028		-0.00014497	
Ca		12.23926561		1.32741205		-1.46871254		-0.00039859		-0.00021028		 0.00014497	
Ca		2.41450316		2.03823764		5.07409197		-0.00039859		 0.00021028		 0.00014497	
Ca		14.62276773		4.69306174		3.60910029		 0.00039859		-0.00021028		-0.00014497	
Ca		11.69717958		1.15643702		3.96017146		-0.00013410		 0.00021043		-0.00022975	
Ca		5.34009131		5.57486236		4.72302265		 0.00013410		-0.00021043		 0.00022975	
Ca		15.16485376		4.52208671		-1.81978371		 0.00013410		 0.00021043		 0.00022975	
Ca		3.17854414		2.20921267		-0.38142559		-0.00013410		-0.00021043		-0.00022975	
Ca		9.17169895		3.36564969		-1.10060373		0.00000000		0.00000000		0.00000000	
Ca		-0.65306350		0.00000000		5.44220078		-0.00000000		0.00000000		-0.00000000	
Ca		8.51863545		3.36564969		4.34159521		-0.00000000		0.00000000		-0.00000000	
Ca		0.00000000		0.00000000		0.00000000		0.00000000		0.00000000		0.00000000	
Si		6.70726525		4.84249677		7.25997256		 0.00013327		-0.00002209		-0.00014833	
Si		10.33000564		1.88880261		1.42322155		-0.00013327		 0.00002209		 0.00014833	
Si		9.67229013		1.88880261		6.90416810		-0.00036152		-0.00031439		-0.00005622	
Si		7.36497891		4.84249677		1.77902416		 0.00036152		 0.00031439		 0.00005622	
Si		0.50524134		1.47684708		7.96602421		-0.00013327		-0.00002209		 0.00014833	
Si		16.53202955		5.25445230		0.71716805		 0.00013327		 0.00002209		-0.00014833	
Si		15.88361436		5.25445230		6.12061937		 0.00036152		-0.00031439		 0.00005622	
Si		1.15365653		1.47684708		2.56257104		-0.00036152		 0.00031439		-0.00005622	
Si		11.52383421		4.95087111		3.98097246		 0.00054369		-0.00012084		 0.00031448	
Si		5.51343668		1.78042826		4.70221980		-0.00054369		 0.00012084		-0.00031448	
Si		15.33819913		1.58522143		-1.84058471		-0.00054369		-0.00012084		-0.00031448	
Si		3.00519876		5.14607980		-0.36062459		 0.00054369		 0.00012084		 0.00031448	
Si		6.20337074		1.90361217		-0.74440390		 0.00054586		 0.00017136		 0.00047822	
Si		12.14002716		4.82768906		-1.45680355		-0.00054586		-0.00017136		-0.00047822	
Si		2.31526471		5.26926001		5.08600095		-0.00054586		 0.00017136		-0.00047822	
Si		14.72200619		1.46203752		3.59719131		 0.00054586		-0.00017136		 0.00047822	
Mg		8.51863545		0.00000000		4.34159521		-0.00000000		-0.00000000		-0.00000000	
Mg		0.00000000		3.36564969		0.00000000		0.00000000		-0.00000000		0.00000000	
Mg		9.17169895		0.00000000		-1.10060373		0.00000000		0.00000000		0.00000000	
Mg		-0.65306350		3.36564969		5.44220078		-0.00000000		0.00000000		-0.00000000	
O		5.13639151		1.72994348		0.69240786		 0.00034351		-0.00006989		 0.00037698	
O		11.90087938		5.00135590		7.99078440		-0.00034351		 0.00006989		-0.00037698	
O		12.88831080		5.00135590		-0.23782312		-0.00049551		 0.00061059		 0.00021921	
O		4.14895824		1.72994348		8.92101538		 0.00049551		-0.00061059		-0.00021921	
O		3.38224393		5.09559317		3.64918735		-0.00034351		-0.00006989		-0.00037698	
O		13.65502696		1.63570621		5.03400307		 0.00034351		 0.00006989		 0.00037698	
O		13.97372254		1.63570621		2.37821087		 0.00049551		 0.00061059		-0.00021921	
O		3.06354835		5.09559317		6.30498139		-0.00049551		-0.00061059		 0.00021921	
O		12.28495983		5.70410421		2.60553650		-0.00011682		 0.00038773		-0.00014181	
O		4.75231106		1.02719516		6.07765761		 0.00011682		-0.00038773		 0.00014181	
O		5.06499857		1.02719516		3.47193082		 0.00078575		 0.00004814		-0.00041915	
O		11.97227232		5.70410421		5.21126145		-0.00078575		-0.00004814		 0.00041915	
O		14.57707536		2.33845452		-0.46514690		 0.00011682		 0.00038773		 0.00014181	
O		2.46019553		4.39284670		9.14833916		-0.00011682		-0.00038773		-0.00014181	
O		3.45363687		4.39284670		0.86966439		-0.00078575		 0.00004814		 0.00041915	
O		13.58363402		2.33845452		7.81352602		 0.00078575		-0.00004814		-0.00041915	
O		7.60190045		5.25647162		8.31999965		-0.00002206		-0.00001062		 0.00005285	
O		9.43536859		1.47482776		0.36319262		 0.00002206		 0.00001062		-0.00005285	
O		8.49338936		1.47482776		8.21302201		-0.00006883		 0.00038718		 0.00036229	
O		8.54388153		5.25647162		0.47017025		 0.00006883		-0.00038718		-0.00036229	
O		-0.38939386		1.89082193		6.90599527		 0.00002206		-0.00001062		-0.00005285	
O		17.42666475		4.84047745		1.77719514		-0.00002206		 0.00001062		 0.00005285	
O		17.06251698		4.84047745		4.81176730		 0.00006883		 0.00038718		-0.00036229	
O		-0.02524424		1.89082193		3.87142496		-0.00006883		-0.00038718		 0.00036229	
O		5.19025168		5.45302528		7.81125914		 0.00030196		 0.00024100		 0.00016036	
O		11.84701921		1.27827410		0.87193127		-0.00030196		-0.00024100		-0.00016036	
O		11.09939328		1.27827410		7.10216281		-0.00040830		-0.00008098		 0.00000775	
O		5.93787761		5.45302528		1.58102945		 0.00040830		 0.00008098		-0.00000775	
O		2.02225676		2.08737559		7.41473763		-0.00030196		 0.00024100		-0.00016036	
O		15.01501413		4.64392379		1.26845648		 0.00030196		-0.00024100		 0.00016036	
O		14.45651306		4.64392379		5.92262650		 0.00040830		-0.00008098		-0.00000775	
O		2.58075783		2.08737559		2.76056761		-0.00040830		 0.00008098		 0.00000775	
O		6.89711804		3.33805174		-0.82765409		 0.00010486		 0.00034549		 0.00062493	
O		11.44627986		3.39324764		-1.37355336		-0.00010486		-0.00034549		-0.00062493	
O		1.62151741		6.70370143		5.16924930		-0.00010486		 0.00034549		-0.00062493	
O		15.41575348		0.02759795		3.51394112		 0.00010486		-0.00034549		 0.00062493	
O		6.60907248		3.29497173		6.92117433		 0.00011193		-0.00025834		-0.00007042	
O		10.42819841		3.43632949		1.76201608		-0.00011193		 0.00025834		 0.00007042	
O		9.85585403		3.43632949		6.53156062		 0.00046607		 0.00036634		 0.00059141	
O		7.18141686		3.29497173		2.15163164		-0.00046607		-0.00036634		-0.00059141	
O		0.60343411		6.66062142		8.30482059		-0.00011193		-0.00025834		 0.00007042	
O		16.43383493		0.07067980		0.37837167		 0.00011193		 0.00025834		-0.00007042	
O		15.70005231		0.07067980		6.49322685		-0.00046607		 0.00036634		-0.00059141	
O		1.33721858		6.66062142		2.18996542		 0.00046607		-0.00036634		 0.00059141	
O		7.29700385		0.70342081		-0.87563921		-0.00028473		-0.00059332		-0.00009277	
O		11.04639405		6.02787857		-1.32556640		 0.00028473		 0.00059332		 0.00009277	
O		1.22163160		4.06907050		5.21723626		 0.00028473		-0.00059332		 0.00009277	
O		15.81563929		2.66222888		3.46595600		-0.00028473		 0.00059332		-0.00009277	
O		9.92007128		5.19521776		4.17342468		 0.00067597		 0.00075590		 0.00012400	
O		7.11719962		1.53608347		4.50976758		-0.00067597		-0.00075590		-0.00012400	
O		16.94196391		1.82956622		-2.03303508		-0.00067597		 0.00075590		-0.00012400	
O		1.40143583		4.90173316		-0.16817237		 0.00067597		-0.00075590		 0.00012400	
O		12.08826021		3.45046472		3.91324127		-0.00044906		-0.00077881		-0.00022193	
O		4.94901068		3.28083651		4.76995099		 0.00044906		 0.00077881		 0.00022193	
O		14.77377313		0.08481318		-1.77285351		 0.00044906		-0.00077881		 0.00022193	
O		3.56962476		6.64648435		-0.42835578		-0.00044906		 0.00077881		-0.00022193	
O		7.32763355		5.66102236		5.87482244		 0.00041511		-0.00018570		-0.00018219	
O		9.70963734		1.07027702		2.80837167		-0.00041511		 0.00018570		 0.00018219	
O		9.37108853		1.07027702		5.62960748		 0.00053107		-0.00040822		 0.00000001	
O		7.66618236		5.66102236		3.05358479		-0.00053107		 0.00040822		-0.00000001	
O		-0.11512511		2.29537267		9.35117433		-0.00041511		-0.00018570		 0.00018219	
O		17.15239600		4.43592670		-0.66798206		 0.00041511		 0.00018570		-0.00018219	
O		16.18481781		4.43592670		7.39518184		-0.00053107		-0.00040822		-0.00000001	
O		0.85245308		2.29537267		1.28801042		 0.00053107		 0.00040822		 0.00000001	
