# total energy = -66814.6890221 eV	

CRYSTAL	
PRIMVEC	
		18.34339916		0.00000000		0.73373523	
		0.00000000		6.73129745		0.00000000	
		0.43537992		0.00000000		10.88440628	
PRIMCOORD
   112 1	
Ca		14.27275109		6.72409741		3.08748729		-0.00007900		-0.00013280		 0.00031028	
Ca		4.50602432		0.00720371		8.53065056		 0.00007900		 0.00013280		-0.00031028	
Ca		4.27229675		0.00720371		2.68746867		-0.00036428		-0.00019067		 0.00011113	
Ca		14.50647682		6.72409741		8.93066733		 0.00036428		 0.00019067		-0.00011113	
Ca		13.46003578		3.35844685		3.45531687		 0.00007900		-0.00013280		-0.00031028	
Ca		5.31873963		3.37285243		8.16281914		-0.00007900		 0.00013280		 0.00031028	
Ca		5.11708911		3.37285243		3.12160025		 0.00036428		-0.00019067		-0.00011113	
Ca		13.66168446		3.35844685		8.49653760		-0.00036428		 0.00019067		 0.00011113	
Ca		7.88140282		1.06469080		8.45071586		 0.00026212		 0.00021749		-0.00047694	
Ca		10.89737075		5.66661032		3.16742015		-0.00026212		-0.00021749		 0.00047694	
Ca		11.11387478		5.66661032		8.58001540		-0.00008272		-0.00024086		-0.00056988	
Ca		7.66489879		1.06469080		3.03812061		 0.00008272		 0.00024086		 0.00056988	
Ca		1.94336113		4.43033952		8.24275200		-0.00026212		 0.00021749		 0.00047694	
Ca		16.83541427		2.30095976		3.37538401		 0.00026212		-0.00021749		-0.00047694	
Ca		17.05428650		2.30095976		8.84718953		 0.00008272		-0.00024086		 0.00056988	
Ca		1.72448891		4.43033952		2.77094648		-0.00008272		 0.00024086		-0.00056988	
Ca		6.10413263		5.40388802		0.24416413		 0.00038416		 0.00050732		-0.00034996	
Ca		12.23926469		1.32741126		0.48957110		-0.00038416		-0.00050732		 0.00034996	
Ca		3.28525507		2.03823746		5.56490296		-0.00038416		 0.00050732		 0.00034996	
Ca		15.49352033		4.69306182		6.05323305		 0.00038416		-0.00050732		-0.00034996	
Ca		12.56793101		1.15643707		5.93620955		 0.00006146		-0.00018223		-0.00007118	
Ca		6.21084257		5.57486221		5.68192646		-0.00006146		 0.00018223		 0.00007118	
Ca		15.16485402		4.52208763		0.60659460		-0.00006146		-0.00018223		 0.00007118	
Ca		3.17854330		2.20921348		0.12714247		 0.00006146		 0.00018223		-0.00007118	
Ca		9.17169958		3.36565056		0.36686762		0.00000000		0.00000000		-0.00000000	
Ca		0.21768813		0.00000000		5.44219947		-0.00000000		0.00000000		0.00000000	
Ca		9.38938770		3.36565056		5.80906709		0.00000000		0.00000000		-0.00000000	
Ca		0.00000000		0.00000000		0.00000000		0.00000000		0.00000000		0.00000000	
Si		8.01649250		4.84249649		8.49024261		-0.00025766		-0.00000069		 0.00026285	
Si		10.76228108		1.88880279		3.12789523		 0.00025766		 0.00000069		-0.00026285	
Si		10.98151862		1.88880279		8.60884307		 0.00017149		 0.00001330		-0.00024462	
Si		7.79725495		4.84249649		3.00929477		-0.00017149		-0.00001330		 0.00024462	
Si		1.80826962		1.47684776		8.20322708		 0.00025766		-0.00000069		-0.00026285	
Si		16.97050395		5.25445335		3.41490892		-0.00025766		 0.00000069		 0.00026285	
Si		17.18664265		5.25445335		8.81836186		-0.00017149		 0.00001330		 0.00024462	
Si		1.59213276		1.47684776		2.79977415		 0.00017149		-0.00001330		-0.00024462	
Si		12.39458496		4.95087150		5.92927571		-0.00009438		 0.00023255		 0.00034676	
Si		6.38418862		1.78042962		5.68886030		 0.00009438		-0.00023255		-0.00034676	
Si		15.33820007		1.58522094		0.61352844		 0.00009438		 0.00023255		-0.00034676	
Si		3.00519909		5.14607834		0.12020862		-0.00009438		-0.00023255		 0.00034676	
Si		6.20337083		1.90361225		0.24813498		-0.00024058		 0.00009999		 0.00004514	
Si		12.14002832		4.82768887		0.48560025		 0.00024058		-0.00009999		-0.00004514	
Si		3.18601687		5.26926097		5.56093211		 0.00024058		 0.00009999		-0.00004514	
Si		15.59275670		1.46203831		6.05720207		-0.00024058		-0.00009999		 0.00004514	
Mg		9.38938770		0.00000000		5.80906709		0.00000000		-0.00000000		0.00000000	
Mg		0.00000000		3.36565056		0.00000000		0.00000000		-0.00000000		0.00000000	
Mg		9.17169958		0.00000000		0.36686762		-0.00000000		0.00000000		0.00000000	
Mg		0.21768813		3.36565056		5.44219947		0.00000000		0.00000000		-0.00000000	
O		5.34885421		1.72994309		1.53972598		-0.00067418		 0.00018210		 0.00047334	
O		13.42991937		5.00135619		10.07841003		 0.00067418		-0.00018210		-0.00047334	
O		13.10077574		5.00135619		1.84980292		 0.00010257		-0.00056022		-0.00033388	
O		5.67799967		1.72994309		9.76833309		-0.00010257		 0.00056022		 0.00033388	
O		4.04053166		5.09559365		4.26934111		 0.00067418		 0.00018210		-0.00047334	
O		14.73824191		1.63570563		7.34879307		-0.00067418		-0.00018210		 0.00047334	
O		14.63201112		1.63570563		4.69300124		-0.00010257		-0.00056022		 0.00033388	
O		4.14676429		5.09559365		6.92513477		 0.00010257		 0.00056022		-0.00033388	
O		12.94725273		5.70410300		4.65060512		 0.00016153		-0.00003511		-0.00017531	
O		5.83152084		1.02719628		6.96753089		-0.00016153		 0.00003511		 0.00017531	
O		5.72729108		1.02719628		4.36180518		-0.00008492		 0.00017034		-0.00015627	
O		13.05148250		5.70410300		7.25632899		 0.00008492		-0.00017034		 0.00015627	
O		14.78553229		2.33845428		1.89219904		-0.00016153		-0.00003511		 0.00017531	
O		3.99324128		4.39284500		9.72593697		 0.00016153		 0.00003511		-0.00017531	
O		3.66209479		4.39284500		1.44726190		 0.00008492		 0.00017034		 0.00015627	
O		15.11667878		2.33845428		10.17087410		-0.00008492		-0.00017034		-0.00015627	
O		9.10063917		5.25647274		9.71615212		-0.00018528		-0.00034450		-0.00005006	
O		9.67813440		1.47482838		1.90198205		 0.00018528		 0.00034450		 0.00005006	
O		9.99212711		1.47482838		9.75181267		-0.00048155		 0.00001860		-0.00011846	
O		8.78664646		5.25647274		1.86632334		 0.00048155		-0.00001860		 0.00011846	
O		0.72412478		1.89082218		6.97731390		 0.00018528		-0.00034450		 0.00005006	
O		18.05465062		4.84047710		4.64082027		-0.00018528		 0.00034450		-0.00005006	
O		18.17603417		4.84047710		7.67539226		 0.00048155		 0.00001860		 0.00011846	
O		0.60274124		1.89082218		3.94274558		-0.00048155		-0.00001860		-0.00011846	
O		6.55942004		5.45302522		8.80600137		-0.00031568		 0.00011312		 0.00054890	
O		12.21935353		1.27827406		2.81213647		 0.00031568		-0.00011312		-0.00054890	
O		12.46856246		1.27827406		9.04236516		-0.00019362		-0.00001189		-0.00033409	
O		6.31021111		5.45302522		2.57576901		 0.00019362		 0.00001189		 0.00033409	
O		3.26534208		2.08737650		7.88746833		 0.00031568		 0.00011312		-0.00054890	
O		15.51343333		4.64392462		3.73066768		-0.00031568		-0.00011312		 0.00054890	
O		15.69959882		4.64392462		8.38483794		 0.00019362		-0.00001189		 0.00033409	
O		3.07917659		2.08737650		3.23329807		-0.00019362		 0.00001189		-0.00033409	
O		6.89711852		3.33805104		0.27588503		-0.00002990		-0.00002141		 0.00005727	
O		11.44628063		3.39324824		0.45785020		 0.00002990		 0.00002141		-0.00005727	
O		2.49226918		6.70370160		5.53318205		 0.00002990		-0.00002141		-0.00005727	
O		16.28650439		0.02759768		6.08495212		-0.00002990		 0.00002141		 0.00005727	
O		7.86138702		3.29497016		8.12890445		-0.00024439		 0.00023807		-0.00015637	
O		10.91738839		3.43632912		3.48923156		 0.00024439		-0.00023807		 0.00015637	
O		11.10816909		3.43632912		8.25877492		 0.00007644		-0.00014312		-0.00002668	
O		7.67060631		3.29497016		3.35935925		-0.00007644		 0.00014312		 0.00002668	
O		1.96337510		6.66062072		8.56456341		 0.00024439		 0.00023807		 0.00015637	
O		16.81539847		0.07067856		3.05357259		-0.00024439		-0.00023807		-0.00015637	
O		17.05999218		0.07067856		9.16842817		-0.00007644		-0.00014312		 0.00002668	
O		1.71878139		6.66062072		2.44970784		 0.00007644		 0.00014312		-0.00002668	
O		7.29700312		0.70342056		0.29188042		 0.00026142		 0.00054252		-0.00010012	
O		11.04639420		6.02787873		0.44185665		-0.00026142		-0.00054252		 0.00010012	
O		2.09238274		4.06907111		5.51718850		-0.00026142		 0.00054252		 0.00010012	
O		16.68639083		2.66222817		6.10094750		 0.00026142		-0.00054252		-0.00010012	
O		10.79082236		5.19521738		5.86512528		-0.00019638		-0.00015911		-0.00003020	
O		7.98795121		1.53608374		5.75301073		 0.00019638		 0.00015911		 0.00003020	
O		16.94196266		1.82956682		0.67767887		 0.00019638		-0.00015911		 0.00003020	
O		1.40143466		4.90173246		0.05605636		-0.00019638		 0.00015911		-0.00003020	
O		12.95901291		3.45046299		5.95185246		-0.00010939		 0.00048873		 0.00017365	
O		5.81976250		3.28083629		5.66628355		 0.00010939		-0.00048873		-0.00017365	
O		14.77377395		0.08481427		0.59095169		 0.00010939		 0.00048873		-0.00017365	
O		3.56962521		6.64648501		0.14278538		-0.00010939		-0.00048873		 0.00017365	
O		8.42408381		5.66102212		7.17881756		-0.00016853		-0.00033589		-0.00026232	
O		10.35468976		1.07027716		4.43931845		 0.00016853		 0.00033589		 0.00026232	
O		10.46754047		1.07027716		7.26055502		-0.00023824		 0.00015356		 0.00013405	
O		8.31123494		5.66102212		4.35758099		 0.00023824		-0.00015356		-0.00013405	
O		1.40067831		2.29537340		9.51465030		 0.00016853		-0.00033589		 0.00026232	
O		17.37809526		4.43592588		2.10348570		-0.00016853		 0.00033589		-0.00026232	
O		17.70062264		4.43592588		10.16664808		 0.00023824		 0.00015356		-0.00013405	
O		1.07815277		2.29537340		1.45148609		-0.00023824		-0.00015356		 0.00013405	
