# total energy = -66811.3169285 eV	

CRYSTAL	
PRIMVEC	
		18.34339340		0.00000000		-1.46746779	
		0.00000000		6.73130577		0.00000000	
		-0.87074601		0.00000000		10.88439879	
PRIMCOORD
   112 1	
Ca		13.97027681		6.72409770		1.38685413		-0.00028018		-0.00010207		-0.00006681	
Ca		3.50236873		0.00720254		8.03007319		 0.00028018		 0.00010207		 0.00006681	
Ca		3.96982379		0.00720254		2.18689229		-0.00007255		 0.00019185		-0.00039064	
Ca		13.50282175		6.72409770		7.23003687		 0.00007255		-0.00019185		 0.00039064	
Ca		13.10944396		3.35844666		1.85413622		 0.00028018		-0.00010207		 0.00006681	
Ca		4.36320159		3.37285359		7.56279111		-0.00028018		 0.00010207		-0.00006681	
Ca		4.76649990		3.37285359		2.52157137		 0.00007255		 0.00019185		 0.00039064	
Ca		12.70614748		3.35844666		6.89535595		-0.00007255		-0.00019185		-0.00039064	
Ca		6.90358348		1.06469025		7.54405971		 0.00017136		-0.00002921		 0.00044149	
Ca		10.56906390		5.66660999		1.87286761		-0.00017136		 0.00002921		-0.00044149	
Ca		10.13605555		5.66660999		7.28546371		 0.00008148		 0.00022392		 0.00008324	
Ca		7.33658999		1.06469025		2.13146545		-0.00008148		-0.00022392		-0.00008324	
Ca		0.96198867		4.43033946		8.04880459		-0.00017136		-0.00002921		-0.00044149	
Ca		16.51065871		2.30096079		1.36812457		 0.00017136		 0.00002921		 0.00044149	
Ca		16.07291368		2.30096079		6.83992911		-0.00008148		 0.00022392		-0.00008324	
Ca		1.39973370		4.43033946		2.57699821		 0.00008148		-0.00022392		 0.00008324	
Ca		6.10413235		5.40388826		-0.48833029		 0.00004019		-0.00008513		-0.00043469	
Ca		12.23926656		1.32741198		-0.97914118		-0.00004019		 0.00008513		 0.00043469	
Ca		2.63219134		2.03823722		5.19679395		-0.00004019		-0.00008513		 0.00043469	
Ca		14.84045604		4.69306118		4.22013337		 0.00004019		 0.00008513		-0.00043469	
Ca		11.91486684		1.15643712		4.45418109		-0.00009231		-0.00008754		 0.00011802	
Ca		5.55777870		5.57486128		4.96274807		 0.00009231		 0.00008754		-0.00011802	
Ca		15.16485393		4.52208633		-1.21318706		 0.00009231		-0.00008754		-0.00011802	
Ca		3.17854315		2.20921208		-0.25428441		-0.00009231		 0.00008754		 0.00011802	
Ca		9.17170038		3.36564920		-0.73373574		-0.00000000		0.00000000		-0.00000000	
Ca		-0.43537669		0.00000000		5.44219940		0.00000000		0.00000000		0.00000000	
Ca		8.73632369		3.36564920		4.70846366		-0.00000000		0.00000000		0.00000000	
Ca		0.00000000		0.00000000		0.00000000		-0.00000000		0.00000000		-0.00000000	
Si		7.03457263		4.84249650		7.56753882		 0.00022475		 0.00008404		-0.00004785	
Si		10.43807291		1.88880375		1.84938850		-0.00022475		-0.00008404		 0.00004785	
Si		9.99959733		1.88880375		7.33033699		-0.00007801		-0.00046348		-0.00000166	
Si		7.47304821		4.84249650		2.08659033		 0.00007801		 0.00046348		 0.00000166	
Si		0.83099953		1.47684729		8.02532547		-0.00022475		 0.00008404		 0.00004785	
Si		16.64164785		5.25445295		1.39160369		 0.00022475		-0.00008404		-0.00004785	
Si		16.20937190		5.25445295		6.79505399		 0.00007801		-0.00046348		 0.00000166	
Si		1.26327548		1.47684729		2.62187333		-0.00007801		 0.00046348		-0.00000166	
Si		11.74152180		4.95087142		4.46804700		 0.00016377		-0.00016106		 0.00008547	
Si		5.73112558		1.78042883		4.94888032		-0.00016377		 0.00016106		-0.00008547	
Si		15.33819896		1.58522037		-1.22705665		-0.00016377		-0.00016106		-0.00008547	
Si		3.00519811		5.14607803		-0.24041666		 0.00016377		 0.00016106		 0.00008547	
Si		6.20337068		1.90361184		-0.49627076		 0.00052312		 0.00016448		-0.00006385	
Si		12.14002824		4.82768840		-0.97120255		-0.00052312		-0.00016448		 0.00006385	
Si		2.53295301		5.26926105		5.20473442		-0.00052312		 0.00016448		 0.00006385	
Si		14.93969437		1.46203736		4.21219474		 0.00052312		-0.00016448		-0.00006385	
Mg		8.73632369		0.00000000		4.70846366		0.00000000		0.00000000		0.00000000	
Mg		0.00000000		3.36564920		0.00000000		-0.00000000		0.00000000		-0.00000000	
Mg		9.17170038		0.00000000		-0.73373574		0.00000000		0.00000000		0.00000000	
Mg		-0.43537669		3.36564920		5.44219940		0.00000000		0.00000000		0.00000000	
O		5.18950860		1.72994477		0.90423766		 0.00008358		 0.00018859		-0.00001860	
O		12.28313878		5.00135547		8.51269150		-0.00008358		-0.00018859		 0.00001860	
O		12.94142814		5.00135547		0.28408461		-0.00086275		 0.00036710		-0.00028619	
O		4.53121924		1.72994477		9.13284455		 0.00086275		-0.00036710		 0.00028619	
O		3.54681509		5.09559397		3.80422600		-0.00008358		 0.00018859		 0.00001860	
O		13.92583045		1.63570627		5.61270132		 0.00008358		-0.00018859		-0.00001860	
O		14.13829447		1.63570627		2.95690757		 0.00086275		 0.00036710		 0.00028619	
O		3.33435107		5.09559397		6.46001975		-0.00086275		-0.00036710		-0.00028619	
O		12.45053261		5.70410407		3.11680259		 0.00003085		 0.00061582		 0.00017595	
O		5.02211477		1.02719617		6.30012658		-0.00003085		-0.00061582		-0.00017595	
O		5.23057267		1.02719617		3.69439916		 0.00011018		 0.00040076		-0.00006760	
O		12.24207471		5.70410407		5.72252816		-0.00011018		-0.00040076		 0.00006760	
O		14.62918816		2.33845303		0.12418960		-0.00003085		 0.00061582		-0.00017595	
O		2.84345738		4.39284537		9.29273956		 0.00003085		-0.00061582		 0.00017595	
O		3.50575102		4.39284537		1.01406450		-0.00011018		 0.00040076		 0.00006760	
O		13.96689452		2.33845303		8.40286466		 0.00011018		-0.00040076		-0.00006760	
O		7.97658592		5.25647165		8.66903860		-0.00038215		 0.00010820		-0.00007603	
O		9.49606146		1.47482859		0.74789056		 0.00038215		-0.00010820		 0.00007603	
O		8.86807468		1.47482859		8.59771796		-0.00069446		 0.00016760		-0.00033110	
O		8.60457086		5.25647165		0.81920936		 0.00069446		-0.00016760		 0.00033110	
O		-0.11101377		1.89082245		6.92382569		 0.00038215		 0.00010820		 0.00007603	
O		17.58366115		4.84047780		2.49310163		-0.00038215		-0.00010820		-0.00007603	
O		17.34089639		4.84047780		5.52767302		 0.00069446		 0.00016760		 0.00033110	
O		0.13175283		1.89082245		3.88925430		-0.00069446		-0.00016760		-0.00033110	
O		5.53254219		5.45302529		8.05994516		 0.00019421		 0.00022211		 0.00036571	
O		11.94010335		1.27827311		1.35698216		-0.00019421		-0.00022211		-0.00036571	
O		11.44168507		1.27827311		7.58721424		-0.00025004		-0.00054028		-0.00004146	
O		6.03096231		5.45302529		1.82971492		 0.00025004		 0.00054028		 0.00004146	
O		2.33302812		2.08737609		7.53291913		-0.00019421		 0.00022211		-0.00036571	
O		15.13961926		4.64392415		1.88400819		 0.00019421		-0.00022211		 0.00036571	
O		14.76728416		4.64392415		6.53817858		 0.00025004		-0.00054028		 0.00004146	
O		2.70536138		2.08737609		2.87875058		-0.00025004		 0.00054028		-0.00004146	
O		6.89711702		3.33805172		-0.55176936		-0.00016950		 0.00051178		 0.00042613	
O		11.44628005		3.39324853		-0.91570211		 0.00016950		-0.00051178		-0.00042613	
O		1.83920667		6.70370092		5.26023302		 0.00016950		 0.00051178		-0.00042613	
O		15.63344071		0.02759749		4.15669430		-0.00016950		-0.00051178		 0.00042613	
O		6.92215111		3.29497079		7.22310852		-0.00008515		 0.00017032		 0.00001854	
O		10.55049627		3.43632946		2.19382064		 0.00008515		-0.00017032		-0.00001854	
O		10.16893257		3.43632946		6.96336423		-0.00005042		-0.00002217		 0.00037640	
O		7.30371481		3.29497079		2.45356309		 0.00005042		 0.00002217		-0.00037640	
O		0.94341921		6.66061999		8.36975762		 0.00008515		 0.00017032		-0.00001854	
O		16.52922633		0.07067842		1.04717155		-0.00008515		-0.00017032		 0.00001854	
O		16.04003666		0.07067842		7.16202859		 0.00005042		-0.00002217		-0.00037640	
O		1.43260888		6.66061999		2.25490057		-0.00005042		 0.00002217		 0.00037640	
O		7.29700360		0.70342027		-0.58375941		 0.00024227		-0.00025749		-0.00021248	
O		11.04639531		6.02787813		-0.88371207		-0.00024227		 0.00025749		 0.00021248	
O		1.43931825		4.06907132		5.29222491		-0.00024227		-0.00025749		 0.00021248	
O		16.03332729		2.66222893		4.12470426		 0.00024227		 0.00025749		-0.00021248	
O		10.13775957		5.19521690		4.59634945		 0.00035383		 0.00088806		-0.00053335	
O		7.33488781		1.53608334		4.82057971		-0.00035383		-0.00088806		 0.00053335	
O		16.94196303		1.82956770		-1.35535726		-0.00035383		 0.00088806		 0.00053335	
O		1.40143588		4.90173255		-0.11211421		 0.00035383		-0.00088806		-0.00053335	
O		12.30594806		3.45046404		4.42289400		 0.00014365		-0.00045333		 0.00036140	
O		5.16669748		3.28083621		4.99403332		-0.00014365		 0.00045333		-0.00036140	
O		14.77377270		0.08481484		-1.18190182		-0.00014365		-0.00045333		-0.00036140	
O		3.56962437		6.64648541		-0.28556966		 0.00014365		 0.00045333		 0.00036140	
O		7.60174631		5.66102314		6.20082016		 0.00028388		-0.00007284		-0.00037103	
O		9.87089923		1.07027710		3.21610716		-0.00028388		 0.00007284		 0.00037103	
O		9.64520050		1.07027710		6.03734412		 0.00049191		-0.00037491		-0.00010756	
O		7.82744504		5.66102314		3.37958320		-0.00049191		 0.00037491		 0.00010756	
O		0.26382585		2.29537210		9.39204413		-0.00028388		-0.00007284		 0.00037103	
O		17.20882153		4.43592630		0.02488319		 0.00028388		 0.00007284		-0.00037103	
O		16.56376873		4.43592630		8.08804870		-0.00049191		-0.00037491		 0.00010756	
O		0.90887865		2.29537210		1.32888046		 0.00049191		 0.00037491		-0.00010756	
