# total energy = -66802.6251481 eV	

CRYSTAL	
PRIMVEC	
		18.34340566		0.00000000		-2.93495308	
		0.00000000		6.73130823		0.00000000	
		-1.74151089		0.00000000		10.88439195	
PRIMCOORD
   112 1	
Ca		13.76862875		6.72409675		0.25310025		 0.00172835		 0.00013291		 0.00021248	
Ca		2.83326602		0.00720219		7.69635534		-0.00172835		-0.00013291		-0.00021248	
Ca		3.76817428		0.00720219		1.85317364		-0.00010034		-0.00046457		 0.00127821	
Ca		12.83372050		6.72409675		6.09628381		 0.00010034		 0.00046457		-0.00127821	
Ca		12.87571873		3.35844635		0.78668282		-0.00172835		 0.00013291		-0.00021248	
Ca		3.72617605		3.37285259		7.16277462		 0.00172835		-0.00013291		 0.00021248	
Ca		4.53277125		3.37285259		2.12155323		 0.00010034		-0.00046457		-0.00127821	
Ca		12.06912353		3.35844635		5.82790236		-0.00010034		 0.00046457		 0.00127821	
Ca		6.25170215		1.06469073		6.93962375		 0.00108935		 0.00199507		-0.00004393	
Ca		10.35019077		5.66661007		1.00983370		-0.00108935		-0.00199507		 0.00004393	
Ca		9.48417611		5.66661007		6.42242769		-0.00192248		 0.00021265		-0.00086790	
Ca		7.11771867		1.06469073		1.52702976		 0.00192248		-0.00021265		 0.00086790	
Ca		0.30773993		4.43033927		7.91950436		-0.00108935		 0.00199507		 0.00004393	
Ca		16.29415485		2.30095967		0.02995123		 0.00108935		-0.00199507		-0.00004393	
Ca		15.41866606		2.30095967		5.50175663		 0.00192248		 0.00021265		 0.00086790	
Ca		1.18322872		4.43033927		2.44769897		-0.00192248		-0.00021265		-0.00086790	
Ca		6.10413247		5.40388708		-0.97666127		 0.00150575		 0.00135065		 0.00042914	
Ca		12.23926576		1.32741186		-1.95828252		-0.00150575		-0.00135065		-0.00042914	
Ca		2.19681492		2.03823854		4.95138814		-0.00150575		 0.00135065		-0.00042914	
Ca		14.40507986		4.69306226		2.99806745		 0.00150575		-0.00135065		 0.00042914	
Ca		11.47949130		1.15643739		3.46616155		 0.00041450		 0.00077698		 0.00034854	
Ca		5.12240348		5.57486155		4.48329404		-0.00041450		-0.00077698		-0.00034854	
Ca		15.16485432		4.52208779		-2.42637662		-0.00041450		 0.00077698		-0.00034854	
Ca		3.17854391		2.20921301		-0.50856717		 0.00041450		-0.00077698		 0.00034854	
Ca		9.17169912		3.36565040		-1.46747282		0.00000000		0.00000000		0.00000000	
Ca		-0.87075173		0.00000000		5.44219969		0.00000000		0.00000000		0.00000000	
Ca		8.30094739		3.36565040		3.97472872		0.00000000		0.00000000		0.00000000	
Ca		0.00000000		0.00000000		0.00000000		-0.00000000		0.00000000		-0.00000000	
Si		6.37995761		4.84249703		6.95240452		-0.00126626		-0.00082743		 0.00032469	
Si		10.22193531		1.88880377		0.99705107		 0.00126626		 0.00082743		-0.00032469	
Si		9.34498453		1.88880377		6.47799992		 0.00011449		-0.00169438		 0.00002305	
Si		7.25691025		4.84249703		1.47145567		-0.00011449		 0.00169438		-0.00002305	
Si		0.17948446		1.47684663		7.90672358		 0.00126626		-0.00082743		-0.00032469	
Si		16.42241032		5.25445231		0.04273201		-0.00126626		 0.00082743		 0.00032469	
Si		15.55785764		5.25445231		5.44618440		-0.00011449		-0.00169438		-0.00002305	
Si		1.04403714		1.47684663		2.50327119		 0.00011449		 0.00169438		 0.00002305	
Si		11.30614644		4.95087170		3.49389658		 0.00019430		-0.00155480		 0.00096082	
Si		5.29574834		1.78042909		4.45556087		-0.00019430		 0.00155480		-0.00096082	
Si		15.33819918		1.58522130		-2.45411165		-0.00019430		-0.00155480		-0.00096082	
Si		3.00519905		5.14607949		-0.48083215		 0.00019430		 0.00155480		 0.00096082	
Si		6.20337112		1.90361126		-0.99253878		-0.00064717		-0.00143639		-0.00249039	
Si		12.14002711		4.82768954		-1.94240501		 0.00064717		 0.00143639		 0.00249039	
Si		2.09757627		5.26926166		4.96726751		 0.00064717		-0.00143639		 0.00249039	
Si		14.50431851		1.46203728		2.98218808		-0.00064717		 0.00143639		-0.00249039	
Mg		8.30094739		0.00000000		3.97472872		0.00000000		-0.00000000		0.00000000	
Mg		0.00000000		3.36565040		0.00000000		0.00000000		-0.00000000		0.00000000	
Mg		9.17169912		0.00000000		-1.46747282		0.00000000		0.00000000		0.00000000	
Mg		-0.87075173		3.36565040		5.44219969		0.00000000		0.00000000		0.00000000	
O		5.08327535		1.72994317		0.48057764		 0.00232426		-0.00180584		 0.00020244	
O		11.51861943		5.00135577		7.46887795		-0.00232426		 0.00180584		-0.00020244	
O		12.83519735		5.00135577		-0.75972987		-0.00111084		 0.00051068		-0.00182825	
O		3.76669929		1.72994317		8.70918546		 0.00111084		-0.00051068		 0.00182825	
O		3.21767018		5.09559357		3.49414922		-0.00232426		-0.00180584		-0.00020244	
O		13.38422274		1.63570537		4.45530637		 0.00232426		 0.00180584		 0.00020244	
O		13.80915013		1.63570537		1.79951295		 0.00111084		 0.00051068		 0.00182825	
O		2.79274465		5.09559357		6.14994264		-0.00111084		-0.00051068		-0.00182825	
O		12.11938653		5.70410344		2.09426776		 0.00035369		 0.00259045		 0.00089643	
O		4.48250825		1.02719550		5.85518783		-0.00035369		-0.00259045		-0.00089643	
O		4.89942536		1.02719550		3.24946236		-0.00057505		 0.00049872		 0.00065311	
O		11.70246942		5.70410344		4.69999323		 0.00057505		-0.00049872		-0.00065311	
O		14.52495909		2.33845305		-1.05448468		-0.00035369		 0.00259045		-0.00089643	
O		2.07693569		4.39284589		9.00394027		 0.00035369		-0.00259045		 0.00089643	
O		3.40152388		4.39284589		0.72526636		 0.00057505		 0.00049872		-0.00065311	
O		13.20037275		2.33845305		7.22419109		-0.00057505		-0.00049872		 0.00065311	
O		7.22721538		5.25647160		7.97096185		 0.00113600		-0.00057143		-0.00083954	
O		9.37467754		1.47482734		-0.02150626		-0.00113600		 0.00057143		 0.00083954	
O		8.11870429		1.47482734		7.82832429		 0.00003575		-0.00084054		-0.00021038	
O		8.48318863		5.25647160		0.12113316		-0.00003575		 0.00084054		 0.00021038	
O		-0.66777330		1.89082120		6.88816626		-0.00113600		-0.00057143		 0.00083954	
O		17.26966808		4.84047774		1.06128933		 0.00113600		 0.00057143		-0.00083954	
O		16.78413602		4.84047774		4.09586188		-0.00003575		-0.00084054		 0.00021038	
O		-0.18224125		1.89082120		3.85359557		 0.00003575		 0.00084054		-0.00021038	
O		4.84795858		5.45302620		7.56257516		-0.00090818		-0.00047484		-0.00053091	
O		11.75393619		1.27827460		0.38688229		 0.00090818		 0.00047484		 0.00053091	
O		10.75710062		1.27827460		6.61711162		-0.00044392		-0.00216326		 0.00168033	
O		5.84479416		5.45302620		1.33234397		 0.00044392		 0.00216326		-0.00168033	
O		1.71148535		2.08737580		7.29655481		 0.00090818		-0.00047484		 0.00053091	
O		14.89040943		4.64392314		0.65290264		-0.00090818		 0.00047484		-0.00053091	
O		14.14574155		4.64392314		5.30707270		 0.00044392		-0.00216326		-0.00168033	
O		2.45615323		2.08737580		2.64238475		-0.00044392		 0.00216326		 0.00168033	
O		6.89711837		3.33805284		-1.10353835		-0.00013952		-0.00007205		-0.00069295	
O		11.44628172		3.39324796		-1.83140545		 0.00013952		 0.00007205		 0.00069295	
O		1.40383087		6.70370138		5.07826707		 0.00013952		-0.00007205		 0.00069295	
O		15.19806576		0.02759756		2.87118852		-0.00013952		 0.00007205		-0.00069295	
O		6.29599274		3.29497159		6.61924236		-0.00023410		-0.00058900		-0.00092975	
O		10.30590204		3.43632921		1.33021323		 0.00023410		 0.00058900		 0.00092975	
O		9.54277448		3.43632921		6.09975766		-0.00126191		 0.00092495		-0.00105725	
O		7.05912029		3.29497159		1.84969979		 0.00126191		-0.00092495		 0.00105725	
O		0.26344934		6.66062013		8.23988574		 0.00023410		-0.00058900		 0.00092975	
O		16.33844358		0.07067881		-0.29042829		-0.00023410		 0.00058900		-0.00092975	
O		15.36006768		0.07067881		5.82442666		 0.00126191		 0.00092495		 0.00105725	
O		1.24182709		6.66062013		2.12503079		-0.00126191		-0.00092495		-0.00105725	
O		7.29700436		0.70342015		-1.16752025		-0.00131810		-0.00198740		-0.00055810	
O		11.04639573		6.02787879		-1.76742354		 0.00131810		 0.00198740		 0.00055810	
O		1.00394303		4.06907055		5.14224898		 0.00131810		-0.00198740		 0.00055810	
O		15.59795175		2.66222839		2.80720847		-0.00131810		 0.00198740		-0.00055810	
O		9.70238372		5.19521675		3.75049854		 0.00162055		 0.00063071		 0.00094548	
O		6.89951105		1.53608219		4.19895705		-0.00162055		-0.00063071		-0.00094548	
O		16.94196376		1.82956635		-2.71071361		-0.00162055		 0.00063071		-0.00094548	
O		1.40143448		4.90173259		-0.22423018		 0.00162055		-0.00063071		 0.00094548	
O		11.87057379		3.45046423		3.40358776		 0.00333175		 0.00038355		 0.00126576	
O		4.73132285		3.28083657		4.54586783		-0.00333175		-0.00038355		-0.00126576	
O		14.77377369		0.08481383		-2.36380468		-0.00333175		 0.00038355		-0.00126576	
O		3.56962454		6.64648511		-0.57113911		 0.00333175		-0.00038355		 0.00126576	
O		7.05352127		5.66102220		5.54882258		-0.00047132		-0.00170481		 0.00144758	
O		9.54837350		1.07027675		2.40063487		 0.00047132		 0.00170481		-0.00144758	
O		9.09697616		1.07027675		5.22187062		-0.00153076		-0.00076814		 0.00003098	
O		7.50491862		5.66102220		2.72758683		 0.00153076		 0.00076814		-0.00003098	
O		-0.49407734		2.29537365		9.31030553		 0.00047132		-0.00170481		-0.00144758	
O		17.09597212		4.43592529		-1.36084808		-0.00047132		 0.00170481		 0.00144758	
O		15.80586601		4.43592529		6.70231556		 0.00153076		-0.00076814		-0.00003098	
O		0.79602877		2.29537365		1.24714189		-0.00153076		 0.00076814		 0.00003098	
