# total energy = -66802.6261043 eV	

CRYSTAL	
PRIMVEC	
		18.34340566		0.00000000		2.93495308	
		0.00000000		6.73130823		0.00000000	
		1.74151089		0.00000000		10.88439195	
PRIMCOORD
   112 1	
Ca		14.57522395		6.72409675		4.78811743		 0.00003813		 0.00060172		 0.00124888	
Ca		5.50967959		0.00720219		9.03122575		-0.00003813		-0.00060172		-0.00124888	
Ca		4.57476948		0.00720219		3.18804404		-0.00122681		-0.00025904		 0.00006491	
Ca		15.51013221		6.72409675		10.63129913		 0.00122681		 0.00025904		-0.00006491	
Ca		13.81062698		3.35844635		5.05649702		-0.00003813		 0.00060172		-0.00124888	
Ca		6.27427656		3.37285259		8.76284615		 0.00003813		-0.00060172		 0.00124888	
Ca		5.46768136		3.37285259		3.72162662		 0.00122681		-0.00025904		-0.00006491	
Ca		14.61722218		3.35844635		10.09771656		-0.00122681		 0.00025904		 0.00006491	
Ca		8.85922213		1.06469073		9.35737148		 0.00199743		 0.00072467		-0.00089385	
Ca		11.22567956		5.66661007		4.46197355		-0.00199743		-0.00072467		 0.00089385	
Ca		12.09169423		5.66661007		9.87456754		-0.00116834		-0.00137166		-0.00008798	
Ca		7.99320746		1.06469073		3.94477749		 0.00116834		 0.00137166		 0.00008798	
Ca		2.92473217		4.43033927		8.43670042		-0.00199743		 0.00072467		 0.00089385	
Ca		17.16016951		2.30095967		5.38264276		 0.00199743		-0.00072467		-0.00089385	
Ca		18.03565830		2.30095967		10.85444815		 0.00116834		-0.00137166		 0.00008798	
Ca		2.04924338		4.43033927		2.96489502		-0.00116834		 0.00137166		-0.00008798	
Ca		6.10413247		5.40388708		0.97666127		 0.00149519		 0.00131413		-0.00024933	
Ca		12.23926576		1.32741186		1.95828252		-0.00149519		-0.00131413		 0.00024933	
Ca		3.93831837		2.03823854		5.93301125		-0.00149519		 0.00131413		 0.00024933	
Ca		16.14658332		4.69306226		7.88633379		 0.00149519		-0.00131413		-0.00024933	
Ca		13.22099661		1.15643739		7.41823969		 0.00065180		 0.00058410		-0.00041831	
Ca		6.86390693		5.57486155		6.40110534		-0.00065180		-0.00058410		 0.00041831	
Ca		15.16485432		4.52208779		2.42637662		-0.00065180		 0.00058410		 0.00041831	
Ca		3.17854391		2.20921301		0.50856717		 0.00065180		-0.00058410		-0.00041831	
Ca		9.17169912		3.36565040		1.46747282		-0.00000000		0.00000000		0.00000000	
Ca		0.87075173		0.00000000		5.44219969		-0.00000000		0.00000000		0.00000000	
Ca		10.04245270		3.36565040		6.90967252		-0.00000000		0.00000000		0.00000000	
Ca		0.00000000		0.00000000		0.00000000		0.00000000		0.00000000		-0.00000000	
Si		8.99841370		4.84249703		9.41294371		-0.00078735		 0.00100276		-0.00005859	
Si		11.08648799		1.88880377		4.40639946		 0.00078735		-0.00100276		 0.00005859	
Si		11.96344062		1.88880377		9.88734831		 0.00176587		 0.00063216		 0.00072607	
Si		8.12146107		4.84249703		3.93199672		-0.00176587		-0.00063216		-0.00072607	
Si		2.78554245		1.47684663		8.38112819		 0.00078735		 0.00100276		 0.00005859	
Si		17.29936109		5.25445231		5.43821684		-0.00078735		-0.00100276		-0.00005859	
Si		18.16391377		5.25445231		10.84166737		-0.00176587		 0.00063216		-0.00072607	
Si		1.92098978		1.47684663		2.97767580		 0.00176587		-0.00063216		 0.00072607	
Si		13.04764990		4.95087170		7.39050466		 0.00017001		-0.00007801		-0.00084438	
Si		7.03725365		1.78042909		6.42884037		-0.00017001		 0.00007801		 0.00084438	
Si		15.33819918		1.58522130		2.45411165		-0.00017001		-0.00007801		 0.00084438	
Si		3.00519905		5.14607949		0.48083215		 0.00017001		 0.00007801		-0.00084438	
Si		6.20337112		1.90361126		0.99253878		-0.00033430		-0.00115781		 0.00129694	
Si		12.14002711		4.82768954		1.94240501		 0.00033430		 0.00115781		-0.00129694	
Si		3.83908158		5.26926166		5.91713373		 0.00033430		-0.00115781		-0.00129694	
Si		16.24582196		1.46203728		7.90221130		-0.00033430		 0.00115781		 0.00129694	
Mg		10.04245270		0.00000000		6.90967252		-0.00000000		0.00000000		0.00000000	
Mg		0.00000000		3.36565040		0.00000000		0.00000000		0.00000000		-0.00000000	
Mg		9.17169912		0.00000000		1.46747282		0.00000000		0.00000000		-0.00000000	
Mg		0.87075173		3.36565040		5.44219969		-0.00000000		0.00000000		0.00000000	
O		5.50820274		1.72994317		2.17521577		 0.00071738		-0.00111454		-0.00104795	
O		14.57670080		5.00135577		11.64412926		-0.00071738		 0.00111454		 0.00104795	
O		13.26012288		5.00135577		3.41552144		-0.00234635		 0.00180902		 0.00038805	
O		6.82478066		1.72994317		10.40382174		 0.00234635		-0.00180902		-0.00038805	
O		4.53424810		5.09559357		4.73445674		-0.00071738		-0.00111454		 0.00104795	
O		15.55065359		1.63570537		9.08488643		 0.00071738		 0.00111454		-0.00104795	
O		15.12572619		1.63570537		6.42909301		 0.00234635		 0.00180902		-0.00038805	
O		4.95917549		5.09559357		7.39025016		-0.00234635		-0.00180902		 0.00038805	
O		13.44397473		5.70410344		6.18440615		 0.00083422		-0.00075068		 0.00069072	
O		6.64092882		1.02719550		7.63493702		-0.00083422		 0.00075068		-0.00069072	
O		6.22401356		1.02719550		5.02921155		-0.00029268		-0.00195878		 0.00053810	
O		13.86088999		5.70410344		8.79013162		 0.00029268		 0.00195878		-0.00053810	
O		14.94187621		2.33845305		3.66021015		-0.00083422		-0.00075068		-0.00069072	
O		5.14302734		4.39284589		10.15913302		 0.00083422		 0.00075068		 0.00069072	
O		3.81843914		4.39284589		1.88045911		 0.00029268		-0.00195878		-0.00053810	
O		16.26646440		2.33845305		11.93888407		-0.00029268		 0.00195878		 0.00053810	
O		10.22469209		5.25647160		10.76326808		-0.00015552		 0.00067277		-0.00059953	
O		9.86020960		1.47482734		3.05607509		 0.00015552		-0.00067277		 0.00059953	
O		11.11618100		1.47482734		10.90590564		-0.00091325		 0.00056573		-0.00097220	
O		8.96872069		5.25647160		2.91343753		 0.00091325		-0.00056573		 0.00097220	
O		1.55926221		1.89082120		7.03080567		 0.00015552		 0.00067277		 0.00059953	
O		18.52564134		4.84047774		6.78853936		-0.00015552		-0.00067277		-0.00059953	
O		19.01117339		4.84047774		9.82311005		 0.00091325		 0.00056573		 0.00097220	
O		1.07373016		1.89082120		3.99623312		-0.00091325		-0.00056573		-0.00097220	
O		7.58629948		5.45302620		9.55205541		 0.00095532		 0.00098777		 0.00124299	
O		12.49860407		1.27827460		4.26728777		-0.00095532		-0.00098777		-0.00124299	
O		13.49544151		1.27827460		10.49751895		 0.00051079		-0.00002231		-0.00004340	
O		6.58946204		5.45302620		3.32182422		-0.00051079		 0.00002231		 0.00004340	
O		4.19765668		2.08737580		8.24201649		-0.00095532		 0.00098777		-0.00124299	
O		15.88724501		4.64392314		5.57732854		 0.00095532		-0.00098777		 0.00124299	
O		16.63191474		4.64392314		10.23149860		-0.00051079		-0.00002231		 0.00004340	
O		3.45299066		2.08737580		3.58784643		 0.00051079		 0.00002231		-0.00004340	
O		6.89711837		3.33805284		1.10353835		-0.00047589		-0.00019579		 0.00090218	
O		11.44628172		3.39324796		1.83140545		 0.00047589		 0.00019579		-0.00090218	
O		3.14533433		6.70370138		5.80613231		 0.00047589		-0.00019579		-0.00090218	
O		16.93956922		0.02759756		8.01321086		-0.00047589		 0.00019579		 0.00090218	
O		8.80062375		3.29497159		9.03470145		 0.00118106		 0.00009139		-0.00153180	
O		11.28427980		3.43632921		4.78464358		-0.00118106		-0.00009139		 0.00153180	
O		12.04740549		3.43632921		9.55418616		-0.00006099		 0.00093953		-0.00101337	
O		8.03749619		3.29497159		4.26515702		 0.00006099		-0.00093953		 0.00101337	
O		2.98333055		6.66062013		8.75937045		-0.00118106		 0.00009139		 0.00153180	
O		17.10157114		0.07067881		5.05997272		 0.00118106		-0.00009139		-0.00153180	
O		18.07994704		0.07067881		11.17482953		 0.00006099		 0.00093953		 0.00101337	
O		2.00495465		6.66062013		2.64451550		-0.00006099		-0.00093953		-0.00101337	
O		7.29700436		0.70342015		1.16752025		-0.00156701		-0.00174826		 0.00092742	
O		11.04639573		6.02787879		1.76742354		 0.00156701		 0.00174826		-0.00092742	
O		2.74544648		4.06907055		5.74215041		 0.00156701		-0.00174826		-0.00092742	
O		17.33945521		2.66222839		8.07719277		-0.00156701		 0.00174826		 0.00092742	
O		11.44388718		5.19521675		7.13390270		 0.00111958		 0.00048582		-0.00133088	
O		8.64101637		1.53608219		6.68544233		-0.00111958		-0.00048582		 0.00133088	
O		16.94196376		1.82956635		2.71071361		-0.00111958		 0.00048582		 0.00133088	
O		1.40143448		4.90173259		0.22423018		 0.00111958		-0.00048582		-0.00133088	
O		13.61207724		3.45046423		7.48081162		 0.00300061		-0.00037161		-0.00164821	
O		6.47282631		3.28083657		6.33853155		-0.00300061		 0.00037161		 0.00164821	
O		14.77377369		0.08481383		2.36380468		-0.00300061		-0.00037161		 0.00164821	
O		3.56962454		6.64648511		0.57113911		 0.00300061		 0.00037161		-0.00164821	
O		9.24642208		5.66102220		8.15681441		 0.00142955		 0.00036088		 0.00020251	
O		10.83847961		1.07027675		5.66253062		-0.00142955		-0.00036088		-0.00020251	
O		11.28987696		1.07027675		8.48376637		-0.00003340		 0.00187911		 0.00130195	
O		8.79502473		5.66102220		5.33557866		 0.00003340		-0.00187911		-0.00130195	
O		2.53753222		2.29537365		9.63725935		-0.00142955		 0.00036088		-0.00020251	
O		17.54737132		4.43592529		4.18208568		 0.00142955		-0.00036088		 0.00020251	
O		18.83747743		4.43592529		12.24524932		 0.00003340		 0.00187911		-0.00130195	
O		1.24742611		2.29537365		1.57409571		-0.00003340		-0.00187911		 0.00130195	
