# total energy = -20634.4986551 eV

CRYSTAL
PRIMVEC
		4.74600089		0.56951896		0.00000000
		1.22159893		10.17999904		0.00000000
		0.00000000		0.00000000		5.97599837
PRIMECORD
   28 1
Si		2.13697882		1.19857487		1.49400007		-0.00034082		 0.00007219		-0.00000000
Si		3.83062099		9.55094600		4.48200021		 0.00034082		-0.00007219		-0.00000000
Si		4.89136219		4.66153121		4.48200021		-0.00024483		-0.00034851		0.00000000
Si		1.07623811		6.08799014		1.49400007		 0.00024483		 0.00034851		0.00000000
Mg		0.00000000		0.00000000		0.00000000		0.00000000		0.00000000		-0.00000000
Mg		2.98379991		5.37475996		0.00000000		0.00000000		0.00000000		0.00000000
Mg		0.00000000		0.00000000		2.98800014		0.00000000		0.00000000		0.00000000
Mg		2.98379991		5.37475996		2.98800014		0.00000000		0.00000000		0.00000000
Mg		5.04381229		3.38651810		1.49400007		 0.00000327		 0.00037801		0.00000000
Mg		0.92378800		7.36300229		4.48200021		-0.00000327		-0.00037801		0.00000000
Mg		2.60435722		2.54796602		4.48200021		-0.00021036		 0.00015797		0.00000000
Mg		3.36324308		8.20155437		1.49400007		 0.00021036		-0.00015797		0.00000000
O		3.74817518		1.37185117		1.49400007		-0.00009658		 0.00029665		0.00000000
O		2.21942416		9.37766922		4.48200021		 0.00009658		-0.00029665		0.00000000
O		1.76144526		4.30600692		4.48200021		-0.00052434		-0.00047426		0.00000000
O		4.20615409		6.44351299		1.49400007		 0.00052434		 0.00047426		0.00000000
O		1.59100209		4.67485129		1.49400007		 0.00029604		-0.00011415		-0.00000000
O		4.37659821		6.07467005		4.48200021		-0.00029604		 0.00011415		-0.00000000
O		3.48293599		0.95072597		4.48200021		-0.00019181		 0.00017630		-0.00000000
O		2.48466383		9.79879442		1.49400007		 0.00019181		-0.00017630		-0.00000000
O		1.51684106		1.81545981		0.19900110		 0.00045428		 0.00038682		-0.00004497
O		4.45075924		8.93406010		5.77699918		-0.00045428		-0.00038682		 0.00004497
O		4.10288829		3.87561225		5.77699918		-0.00027075		-0.00029775		-0.00011872
O		1.86471200		6.87390909		0.19900110		 0.00027075		 0.00029775		 0.00011872
O		4.45075924		8.93406010		3.18700123		-0.00045428		-0.00038682		-0.00004497
O		1.51684106		1.81545981		2.78899904		 0.00045428		 0.00038682		 0.00004497
O		1.86471200		6.87390909		2.78899904		 0.00027075		 0.00029775		-0.00011872
O		4.10288829		3.87561225		3.18700123		-0.00027075		-0.00029775		 0.00011872
