# total energy = -20638.372507 eV

CRYSTAL
PRIMVEC
		4.74599998		-0.18983981		0.00000000
		-0.40719993		10.17999827		0.00000000
		0.00000000		0.00000000		5.97599741
PRIMECORD
   28 1
Si		1.98403405		0.87501105		1.49400006		-0.00034012		-0.00054615		0.00000000
Si		2.35476505		9.11514836		4.48199972		 0.00034012		 0.00054615		0.00000000
Si		4.22990672		3.95828684		4.48199972		-0.00004948		-0.00016256		0.00000000
Si		0.10889285		6.03187257		1.49400006		 0.00004948		 0.00016256		0.00000000
Mg		0.00000000		0.00000000		0.00000000		0.00000000		0.00000000		0.00000000
Mg		2.16940002		4.99507970		0.00000000		0.00000000		0.00000000		-0.00000000
Mg		0.00000000		0.00000000		2.98799965		0.00000000		0.00000000		0.00000000
Mg		2.16940002		4.99507970		2.98799965		0.00000000		0.00000000		0.00000000
Mg		4.59230801		2.63368869		1.49400006		-0.00080261		-0.00036552		-0.00000000
Mg		-0.25350891		7.35647167		4.48199972		 0.00080261		 0.00036552		-0.00000000
Mg		2.24146011		2.17481669		4.48199972		 0.00019415		-0.00082560		-0.00000000
Mg		2.09733993		7.81534272		1.49400006		-0.00019415		 0.00082560		-0.00000000
O		3.59848891		0.79010608		1.49400006		-0.00012491		 0.00010174		0.00000000
O		0.74031113		9.20005475		4.48199972		 0.00012491		-0.00010174		0.00000000
O		1.09673195		4.10394168		4.48199972		 0.00000119		 0.00033645		0.00000000
O		3.24206762		5.88621868		1.49400006		-0.00000119		-0.00033645		0.00000000
O		0.86309096		4.50763864		1.49400006		 0.00034132		 0.00019080		0.00000000
O		3.47570766		5.48252077		4.48199972		-0.00034132		-0.00019080		0.00000000
O		3.39644688		0.40383518		4.48199972		-0.00013581		 0.00051105		0.00000000
O		0.94235317		9.58632471		1.49400006		 0.00013581		-0.00051105		0.00000000
O		1.25167217		1.60458479		0.19900121		-0.00022760		-0.00021797		 0.00038676
O		3.08712788		8.38557461		5.77699857		 0.00022760		 0.00021797		-0.00038676
O		3.55365607		3.28505706		5.77699857		 0.00020015		 0.00010507		 0.00026313
O		0.78514397		6.70510282		0.19900121		-0.00020015		-0.00010507		-0.00026313
O		3.08712788		8.38557461		3.18700087		 0.00022760		 0.00021797		 0.00038676
O		1.25167217		1.60458479		2.78899891		-0.00022760		-0.00021797		-0.00038676
O		0.78514397		6.70510282		2.78899891		-0.00020015		-0.00010507		 0.00026313
O		3.55365607		3.28505706		3.18700087		 0.00020015		 0.00010507		-0.00026313
