# total energy = -20631.088369 eV

CRYSTAL
PRIMVEC
		4.74600150		-0.75936235		0.00000000
		-1.62880007		10.18000045		0.00000000
		0.00000000		0.00000000		5.97599827
PRIMECORD
   28 1
Si		1.86932594		0.63233879		1.49399981		 0.00009335		 0.00006658		0.00000000
Si		1.24787405		8.78830027		4.48199991		-0.00009335		-0.00006658		0.00000000
Si		3.73381475		3.43085469		4.48199991		-0.00057525		-0.00002903		-0.00000000
Si		-0.61661477		5.98978581		1.49399981		 0.00057525		 0.00002903		-0.00000000
Mg		0.00000000		0.00000000		0.00000000		0.00000000		0.00000000		0.00000000
Mg		1.55859975		4.71031953		0.00000000		0.00000000		0.00000000		0.00000000
Mg		0.00000000		0.00000000		2.98799962		0.00000000		0.00000000		0.00000000
Mg		1.55859975		4.71031953		2.98799962		0.00000000		0.00000000		0.00000000
Mg		4.25368076		2.06906692		1.49399981		-0.00031970		-0.00019082		-0.00000000
Mg		-1.13648078		7.35157358		4.48199991		 0.00031970		 0.00019082		0.00000000
Mg		1.96928775		1.89495396		4.48199991		-0.00040614		-0.00008901		0.00000000
Mg		1.14791176		7.52568558		1.49399981		 0.00040614		 0.00008901		0.00000000
O		3.48622401		0.35379602		1.49399981		-0.00015743		-0.00028815		0.00000000
O		-0.36902403		9.06684352		4.48199991		 0.00015743		 0.00028815		-0.00000000
O		0.59819678		3.95239284		4.48199991		-0.00049199		-0.00007887		0.00000000
O		2.51900273		5.46824767		1.49399981		 0.00049199		 0.00007887		0.00000000
O		0.31715806		4.38223083		1.49399981		-0.00000625		-0.00024647		0.00000000
O		2.80004096		5.03840871		4.48199991		 0.00000625		 0.00024647		-0.00000000
O		3.33157971		-0.00633287		4.48199991		-0.00042659		-0.00017015		0.00000000
O		-0.21438020		9.42697241		1.49399981		 0.00042659		 0.00017015		0.00000000
O		1.05279572		1.44642978		0.19900080		 0.00016494		-0.00012080		-0.00023613
O		2.06440378		7.97420976		5.77699844		-0.00016494		 0.00012080		 0.00023613
O		3.14173263		2.84214183		5.77699844		-0.00047681		-0.00005265		-0.00004675
O		-0.02453313		6.57849867		0.19900080		 0.00047681		 0.00005265		 0.00004675
O		2.06440378		7.97420976		3.18700090		-0.00016494		 0.00012080		-0.00023613
O		1.05279572		1.44642978		2.78899882		 0.00016494		-0.00012080		 0.00023613
O		-0.02453313		6.57849867		2.78899882		 0.00047681		 0.00005265		-0.00004675
O		3.14173263		2.84214183		3.18700090		-0.00047681		-0.00005265		 0.00004675
