# total energy = -20636.9188767 eV

CRYSTAL
PRIMVEC
		4.74599854		0.37967893		0.00000000
		0.81440167		10.17999940		0.00000000
		0.00000000		0.00000000		5.97600211
PRIMECORD
   28 1
Si		2.09874296		1.11768393		1.49400005		 0.00027504		 0.00006180		-0.00000000
Si		3.46165677		9.44199583		4.48199968		-0.00027504		-0.00006180		0.00000000
Si		4.72599785		4.48572005		4.48199968		 0.00013224		-0.00017186		-0.00000000
Si		0.83440188		6.07396066		1.49400005		-0.00013224		 0.00017186		-0.00000000
Mg		0.00000000		0.00000000		0.00000000		0.00000000		0.00000000		0.00000000
Mg		2.78020010		5.27983964		0.00000000		0.00000000		0.00000000		0.00000000
Mg		0.00000000		0.00000000		2.98800010		0.00000000		0.00000000		0.00000000
Mg		2.78020010		5.27983964		2.98800010		0.00000000		0.00000000		0.00000000
Mg		4.93093592		3.19831114		1.49400005		 0.00032597		-0.00034246		-0.00000000
Mg		0.62946382		7.36136957		4.48199968		-0.00032597		 0.00034246		0.00000000
Mg		2.51363307		2.45467892		4.48199968		-0.00010555		-0.00039252		0.00000000
Mg		3.04676714		8.10500084		1.49400005		 0.00010555		 0.00039252		0.00000000
O		3.71075367		1.22641508		1.49400005		 0.00024866		-0.00037232		0.00000000
O		1.84964606		9.33326563		4.48199968		-0.00024866		 0.00037232		0.00000000
O		1.59526713		4.25549069		4.48199968		 0.00020524		 0.00002007		0.00000000
O		3.96513308		6.30418859		1.49400005		-0.00020524		-0.00002007		0.00000000
O		1.40902520		4.63304805		1.49400005		-0.00010018		 0.00093231		-0.00000000
O		4.15137501		5.92663266		4.48199968		 0.00010018		-0.00093231		-0.00000000
O		3.46131397		0.81400316		4.48199968		 0.00042508		-0.00050138		0.00000000
O		2.09908576		9.74567660		1.49400005		-0.00042508		 0.00050138		0.00000000
O		1.45054873		1.76274103		0.19900090		-0.00009478		 0.00018144		 0.00033757
O		4.10985100		8.79693873		5.77699884		 0.00009478		-0.00018144		-0.00033757
O		3.96557968		3.72797289		5.77699884		 0.00021884		-0.00010881		 0.00056892
O		1.59482006		6.83170687		0.19900090		-0.00021884		 0.00010881		-0.00056892
O		4.10985100		8.79693873		3.18700100		 0.00009478		-0.00018144		 0.00033757
O		1.45054873		1.76274103		2.78899873		-0.00009478		 0.00018144		-0.00033757
O		1.59482006		6.83170687		2.78899873		-0.00021884		 0.00010881		 0.00056892
O		3.96557968		3.72797289		3.18700100		 0.00021884		-0.00010881		-0.00056892
