# total energy = -20634.4981768 eV

CRYSTAL
PRIMVEC
		4.74600089		-0.56951896		0.00000000
		-1.22159893		10.17999904		0.00000000
		0.00000000		0.00000000		5.97599837
PRIMECORD
   28 1
Si		1.90756228		0.71323018		1.49400007		-0.00045192		 0.00060587		0.00000000
Si		1.61683682		8.89725133		4.48200021		 0.00045192		-0.00060587		0.00000000
Si		3.89917933		3.60666613		4.48200021		-0.00054417		-0.00002923		0.00000000
Si		-0.37477880		6.00381538		1.49400007		 0.00054417		 0.00002923		0.00000000
Mg		0.00000000		0.00000000		0.00000000		0.00000000		0.00000000		0.00000000
Mg		1.76220002		4.80524004		0.00000000		0.00000000		0.00000000		0.00000000
Mg		0.00000000		0.00000000		2.98800014		0.00000000		0.00000000		0.00000000
Mg		1.76220002		4.80524004		2.98800014		0.00000000		0.00000000		0.00000000
Mg		4.36655724		2.25727402		1.49400007		-0.00009006		-0.00030182		-0.00000000
Mg		-0.84215719		7.35320702		4.48200021		 0.00009006		 0.00030182		-0.00000000
Mg		2.06001191		1.98824186		4.48200021		-0.00000241		-0.00031979		-0.00000000
Mg		1.46438814		7.62223822		1.49400007		 0.00000241		 0.00031979		-0.00000000
O		3.52364528		0.49923312		1.49400007		-0.00055035		 0.00051713		0.00000000
O		0.00075381		9.11124840		4.48200021		 0.00055035		-0.00051713		0.00000000
O		0.76437623		4.00290926		4.48200021		-0.00027323		-0.00042710		0.00000000
O		2.76002430		5.60757129		1.49400007		 0.00027323		 0.00042710		0.00000000
O		0.49913608		4.42403399		1.49400007		-0.00004727		-0.00024318		0.00000000
O		3.02526397		5.18644609		4.48200021		 0.00004727		 0.00024318		0.00000000
O		3.35320211		0.13039018		4.48200021		 0.00024439		-0.00005662		0.00000000
O		0.17119794		9.48009133		1.49400007		-0.00024439		 0.00005662		0.00000000
O		1.11908791		1.49914818		0.19900110		-0.00009609		 0.00025015		 0.00004870
O		2.40531214		8.11133238		5.77699918		 0.00009609		-0.00025015		-0.00004870
O		3.27904108		2.98978023		5.77699918		 0.00058782		-0.00055850		 0.00002119
O		0.24535897		6.62070033		0.19900110		-0.00058782		 0.00055850		-0.00002119
O		2.40531214		8.11133238		3.18700123		 0.00009609		-0.00025015		 0.00004870
O		1.11908791		1.49914818		2.78899904		-0.00009609		 0.00025015		-0.00004870
O		0.24535897		6.62070033		2.78899904		-0.00058782		 0.00055850		 0.00002119
O		3.27904108		2.98978023		3.18700123		 0.00058782		-0.00055850		-0.00002119
