# total energy = -20631.0886102 eV

CRYSTAL
PRIMVEC
		4.74600150		0.75936235		0.00000000
		1.62880007		10.18000045		0.00000000
		0.00000000		0.00000000		5.97599827
PRIMECORD
   28 1
Si		2.17521500		1.27946484		1.49399981		-0.00035036		 0.00017924		0.00000000
Si		4.19958465		9.65989460		4.48199991		 0.00035036		-0.00017924		0.00000000
Si		5.05672576		4.83734069		4.48199991		-0.00011815		-0.00009924		0.00000000
Si		1.31807389		6.10201875		1.49399981		 0.00011815		 0.00009924		0.00000000
Mg		0.00000000		0.00000000		0.00000000		0.00000000		0.00000000		0.00000000
Mg		3.18739983		5.46967948		0.00000000		0.00000000		0.00000000		0.00000000
Mg		0.00000000		0.00000000		2.98799962		0.00000000		0.00000000		0.00000000
Mg		3.18739983		5.46967948		2.98799962		0.00000000		0.00000000		0.00000000
Mg		5.15668757		3.57472601		1.49399981		-0.00033578		 0.00012466		-0.00000000
Mg		1.21811208		7.36463440		4.48199991		 0.00033578		-0.00012466		0.00000000
Mg		2.69508101		2.64125261		4.48199991		-0.00032759		 0.00008363		0.00000000
Mg		3.67971864		8.29810635		1.49399981		 0.00032759		-0.00008363		-0.00000000
O		3.78559660		1.51728809		1.49399981		-0.00038368		-0.00001922		0.00000000
O		2.58920305		9.42207232		4.48199991		 0.00038368		 0.00001922		0.00000000
O		1.92762378		4.35652399		4.48199991		-0.00003563		 0.00079883		0.00000000
O		4.44717587		6.58283545		1.49399981		 0.00003563		-0.00079883		0.00000000
O		1.77297996		4.71665288		1.49399981		-0.00056946		 0.00031370		0.00000000
O		4.60181969		6.22270657		4.48199991		 0.00056946		-0.00031370		0.00000000
O		3.50455789		1.08744913		4.48199991		-0.00007209		-0.00000951		0.00000000
O		2.87024176		9.85191031		1.49399981		 0.00007209		 0.00000951		0.00000000
O		1.58313288		1.86817770		0.19900080		-0.00067818		 0.00001339		 0.00007315
O		4.79166677		9.07118126		5.77699844		 0.00067818		-0.00001339		-0.00007315
O		4.24019459		4.02324971		5.77699844		 0.00026512		 0.00015093		 0.00024711
O		2.13460410		6.91610974		0.19900080		-0.00026512		-0.00015093		-0.00024711
O		4.79166677		9.07118126		3.18700090		 0.00067818		-0.00001339		 0.00007315
O		1.58313288		1.86817770		2.78899882		-0.00067818		 0.00001339		-0.00007315
O		2.13460410		6.91610974		2.78899882		-0.00026512		-0.00015093		 0.00024711
O		4.24019459		4.02324971		3.18700090		 0.00026512		 0.00015093		-0.00024711
