
     Program PWSCF v.6.6 starts on  4Feb2024 at 13:34:49 

     This program is part of the open-source Quantum ESPRESSO suite
     for quantum simulation of materials; please cite
         "P. Giannozzi et al., J. Phys.:Condens. Matter 21 395502 (2009);
         "P. Giannozzi et al., J. Phys.:Condens. Matter 29 465901 (2017);
          URL http://www.quantum-espresso.org", 
     in publications or presentations arising from this work. More details at
     http://www.quantum-espresso.org/quote

     Parallel version (MPI & OpenMP), running on      16 processor cores
     Number of MPI processes:                16
     Threads/MPI process:                     1

     MPI processes distributed on     2 nodes
     R & G space division:  proc/nbgrp/npool/nimage =      16
     Fft bands division:     nmany     =       1
     Waiting for input...
     Reading input from standard input

     Current dimensions of program PWSCF are:
     Max number of different atomic species (ntypx) = 10
     Max number of k-points (npk) =  40000
     Max angular momentum in pseudopotentials (lmaxx) =  3

     IMPORTANT: XC functional enforced from input :
     Exchange-correlation= PBE
                           (   1   4   3   4   0   0   0)
     Any further DFT definition will be discarded
     Please, verify this is what you really want


     --------------------------------------------
     Parameters for DFT-D3 Dispersion Correction:
     --------------------------------------------
       Reference C6 values for interpolation: 

         atom   Coordination number   C6
         O          0.000            31.01
         O          0.993            25.63
         O          1.989            20.74
         Mg         0.000          1366.75
         Mg         0.963           902.54
         Mg         1.950           351.12

       Values used:

         atom   Coordination number  R0_AB[au]  C6      C8
         Mg        16.582            3.292    351.12  31436.69
         Mg        16.582            3.292    351.12  31436.69
         Mg        16.582            3.292    351.12  31436.69
         Mg        16.582            3.292    351.12  31436.69
         O          5.817            2.345     20.74    418.58
         O          5.817            2.345     20.74    418.58
         O          5.817            2.345     20.74    418.58
         O          5.817            2.345     20.74    418.58

         Molecular C6 ( Ry / a.u.^6 ) =      8251.69


     Subspace diagonalization in iterative solution of the eigenvalue problem:
     a serial algorithm will be used

     Found symmetry operation: I + (  0.0000 -0.5000 -0.5000)
     This is a supercell, fractional translations are disabled
 
     Parallelization info
     --------------------
     sticks:   dense  smooth     PW     G-vecs:    dense   smooth      PW
     Min         126     126     35                 4252     4252     619
     Max         127     127     36                 4255     4255     623
     Sum        2025    2025    561                68051    68051    9939
 


     bravais-lattice index     =            0
     lattice parameter (alat)  =       7.9576  a.u.
     unit-cell volume          =     503.9092 (a.u.)^3
     number of atoms/cell      =            8
     number of atomic types    =            2
     number of electrons       =        64.00
     number of Kohn-Sham states=           38
     kinetic-energy cutoff     =     100.0000  Ry
     charge density cutoff     =     400.0000  Ry
     convergence threshold     =      1.0E-06
     mixing beta               =       0.5000
     number of iterations used =            8  plain     mixing
     Exchange-correlation= PBE
                           (   1   4   3   4   0   0   0)
     nstep                     =          100


     celldm(1)=   7.957637  celldm(2)=   0.000000  celldm(3)=   0.000000
     celldm(4)=   0.000000  celldm(5)=   0.000000  celldm(6)=   0.000000

     crystal axes: (cart. coord. in units of alat)
               a(1) = (   1.000000   0.000000   0.000000 )  
               a(2) = (   0.000000   1.000000   0.000000 )  
               a(3) = (   0.000000   0.000000   1.000000 )  

     reciprocal axes: (cart. coord. in units 2 pi/alat)
               b(1) = (  1.000000  0.000000  0.000000 )  
               b(2) = (  0.000000  1.000000  0.000000 )  
               b(3) = (  0.000000  0.000000  1.000000 )  


     PseudoPot. # 1 for Mg read from file:
     ./Mg.upf
     MD5 check sum: 4c04d8c6e0476e83eaecaf72fa8acc4d
     Pseudo is Norm-conserving, Zval = 10.0
     Generated using ONCVPSP code by D. R. Hamann
     Using radial grid of 1510 points,  4 beta functions with: 
                l(1) =   0
                l(2) =   0
                l(3) =   1
                l(4) =   1

     PseudoPot. # 2 for O  read from file:
     ./O.upf
     MD5 check sum: 3e3f909f7470e8921608ab6b1f57bbae
     Pseudo is Norm-conserving + core correction, Zval =  6.0
     Generated using ONCVPSP code by D. R. Hamann
     Using radial grid of  936 points,  5 beta functions with: 
                l(1) =   0
                l(2) =   0
                l(3) =   1
                l(4) =   1
                l(5) =   2

     atomic species   valence    mass     pseudopotential
        Mg            10.00    24.30500     Mg( 1.00)
        O              6.00    15.99900     O ( 1.00)

     No symmetry found



   Cartesian axes

     site n.     atom                  positions (alat units)
         1           Mg  tau(   1) = (   0.0000000   0.0000000   0.0000000  )
         2           Mg  tau(   2) = (   0.0000000   0.5000000   0.5000000  )
         3           Mg  tau(   3) = (   0.5000000   0.0000000   0.5000000  )
         4           Mg  tau(   4) = (   0.5000000   0.5000000   0.0000000  )
         5           O   tau(   5) = (   0.5000000   0.5000000   0.5000000  )
         6           O   tau(   6) = (   0.5000000   0.0000000   0.0000000  )
         7           O   tau(   7) = (   0.0000000   0.5000000   0.0000000  )
         8           O   tau(   8) = (   0.0000000   0.0000000   0.5000000  )

     number of k points=    63  Gaussian smearing, width (Ry)=  0.0050
                       cart. coord. in units 2pi/alat
        k(    1) = (   0.0000000   0.0000000   0.0000000), wk =   0.0160000
        k(    2) = (   0.0000000   0.0000000   0.2000000), wk =   0.0320000
        k(    3) = (   0.0000000   0.0000000   0.4000000), wk =   0.0320000
        k(    4) = (   0.0000000   0.2000000   0.0000000), wk =   0.0320000
        k(    5) = (   0.0000000   0.2000000   0.2000000), wk =   0.0320000
        k(    6) = (   0.0000000   0.2000000   0.4000000), wk =   0.0320000
        k(    7) = (   0.0000000   0.2000000  -0.4000000), wk =   0.0320000
        k(    8) = (   0.0000000   0.2000000  -0.2000000), wk =   0.0320000
        k(    9) = (   0.0000000   0.4000000   0.0000000), wk =   0.0320000
        k(   10) = (   0.0000000   0.4000000   0.2000000), wk =   0.0320000
        k(   11) = (   0.0000000   0.4000000   0.4000000), wk =   0.0320000
        k(   12) = (   0.0000000   0.4000000  -0.4000000), wk =   0.0320000
        k(   13) = (   0.0000000   0.4000000  -0.2000000), wk =   0.0320000
        k(   14) = (   0.2000000   0.0000000   0.0000000), wk =   0.0320000
        k(   15) = (   0.2000000   0.0000000   0.2000000), wk =   0.0320000
        k(   16) = (   0.2000000   0.0000000   0.4000000), wk =   0.0320000
        k(   17) = (   0.2000000   0.0000000  -0.4000000), wk =   0.0320000
        k(   18) = (   0.2000000   0.0000000  -0.2000000), wk =   0.0320000
        k(   19) = (   0.2000000   0.2000000   0.0000000), wk =   0.0320000
        k(   20) = (   0.2000000   0.2000000   0.2000000), wk =   0.0320000
        k(   21) = (   0.2000000   0.2000000   0.4000000), wk =   0.0320000
        k(   22) = (   0.2000000   0.2000000  -0.4000000), wk =   0.0320000
        k(   23) = (   0.2000000   0.2000000  -0.2000000), wk =   0.0320000
        k(   24) = (   0.2000000   0.4000000   0.0000000), wk =   0.0320000
        k(   25) = (   0.2000000   0.4000000   0.2000000), wk =   0.0320000
        k(   26) = (   0.2000000   0.4000000   0.4000000), wk =   0.0320000
        k(   27) = (   0.2000000   0.4000000  -0.4000000), wk =   0.0320000
        k(   28) = (   0.2000000   0.4000000  -0.2000000), wk =   0.0320000
        k(   29) = (   0.2000000  -0.4000000   0.0000000), wk =   0.0320000
        k(   30) = (   0.2000000  -0.4000000   0.2000000), wk =   0.0320000
        k(   31) = (   0.2000000  -0.4000000   0.4000000), wk =   0.0320000
        k(   32) = (   0.2000000  -0.4000000  -0.4000000), wk =   0.0320000
        k(   33) = (   0.2000000  -0.4000000  -0.2000000), wk =   0.0320000
        k(   34) = (   0.2000000  -0.2000000   0.0000000), wk =   0.0320000
        k(   35) = (   0.2000000  -0.2000000   0.2000000), wk =   0.0320000
        k(   36) = (   0.2000000  -0.2000000   0.4000000), wk =   0.0320000
        k(   37) = (   0.2000000  -0.2000000  -0.4000000), wk =   0.0320000
        k(   38) = (   0.2000000  -0.2000000  -0.2000000), wk =   0.0320000
        k(   39) = (   0.4000000   0.0000000   0.0000000), wk =   0.0320000
        k(   40) = (   0.4000000   0.0000000   0.2000000), wk =   0.0320000
        k(   41) = (   0.4000000   0.0000000   0.4000000), wk =   0.0320000
        k(   42) = (   0.4000000   0.0000000  -0.4000000), wk =   0.0320000
        k(   43) = (   0.4000000   0.0000000  -0.2000000), wk =   0.0320000
        k(   44) = (   0.4000000   0.2000000   0.0000000), wk =   0.0320000
        k(   45) = (   0.4000000   0.2000000   0.2000000), wk =   0.0320000
        k(   46) = (   0.4000000   0.2000000   0.4000000), wk =   0.0320000
        k(   47) = (   0.4000000   0.2000000  -0.4000000), wk =   0.0320000
        k(   48) = (   0.4000000   0.2000000  -0.2000000), wk =   0.0320000
        k(   49) = (   0.4000000   0.4000000   0.0000000), wk =   0.0320000
        k(   50) = (   0.4000000   0.4000000   0.2000000), wk =   0.0320000
        k(   51) = (   0.4000000   0.4000000   0.4000000), wk =   0.0320000
        k(   52) = (   0.4000000   0.4000000  -0.4000000), wk =   0.0320000
        k(   53) = (   0.4000000   0.4000000  -0.2000000), wk =   0.0320000
        k(   54) = (   0.4000000  -0.4000000   0.0000000), wk =   0.0320000
        k(   55) = (   0.4000000  -0.4000000   0.2000000), wk =   0.0320000
        k(   56) = (   0.4000000  -0.4000000   0.4000000), wk =   0.0320000
        k(   57) = (   0.4000000  -0.4000000  -0.4000000), wk =   0.0320000
        k(   58) = (   0.4000000  -0.4000000  -0.2000000), wk =   0.0320000
        k(   59) = (   0.4000000  -0.2000000   0.0000000), wk =   0.0320000
        k(   60) = (   0.4000000  -0.2000000   0.2000000), wk =   0.0320000
        k(   61) = (   0.4000000  -0.2000000   0.4000000), wk =   0.0320000
        k(   62) = (   0.4000000  -0.2000000  -0.4000000), wk =   0.0320000
        k(   63) = (   0.4000000  -0.2000000  -0.2000000), wk =   0.0320000

     Dense  grid:    68051 G-vectors     FFT dimensions: (  54,  54,  54)

     Estimated max dynamical RAM per process >      29.22 MB

     Estimated total dynamical RAM >     467.47 MB

     Initial potential from superposition of free atoms

     starting charge   63.99678, renormalised to   64.00000
     Starting wfcs are   36 randomized atomic wfcs +    2 random wfcs

     total cpu time spent up to now is        1.9 secs

     Self-consistent Calculation

     iteration #  1     ecut=   100.00 Ry     beta= 0.50
     Davidson diagonalization with overlap
     ethr =  1.00E-02,  avg # of iterations =  4.0

     total cpu time spent up to now is       10.6 secs

     total energy              =    -608.03223956 Ry
     estimated scf accuracy    <       1.57336964 Ry

     iteration #  2     ecut=   100.00 Ry     beta= 0.50
     Davidson diagonalization with overlap
     ethr =  2.46E-03,  avg # of iterations =  2.2

     total cpu time spent up to now is       15.3 secs

     total energy              =    -608.48016584 Ry
     estimated scf accuracy    <       0.24132896 Ry

     iteration #  3     ecut=   100.00 Ry     beta= 0.50
     Davidson diagonalization with overlap
     ethr =  3.77E-04,  avg # of iterations =  2.2

     total cpu time spent up to now is       19.8 secs

     total energy              =    -608.51529458 Ry
     estimated scf accuracy    <       0.01286812 Ry

     iteration #  4     ecut=   100.00 Ry     beta= 0.50
     Davidson diagonalization with overlap
     ethr =  2.01E-05,  avg # of iterations =  4.1

     total cpu time spent up to now is       25.2 secs

     total energy              =    -608.51591804 Ry
     estimated scf accuracy    <       0.00171225 Ry

     iteration #  5     ecut=   100.00 Ry     beta= 0.50
     Davidson diagonalization with overlap
     ethr =  2.68E-06,  avg # of iterations =  3.9

     total cpu time spent up to now is       30.6 secs

     total energy              =    -608.51631878 Ry
     estimated scf accuracy    <       0.00005206 Ry

     iteration #  6     ecut=   100.00 Ry     beta= 0.50
     Davidson diagonalization with overlap
     ethr =  8.13E-08,  avg # of iterations =  2.1

     total cpu time spent up to now is       35.2 secs

     total energy              =    -608.51633117 Ry
     estimated scf accuracy    <       0.00000150 Ry

     iteration #  7     ecut=   100.00 Ry     beta= 0.50
     Davidson diagonalization with overlap
     ethr =  2.35E-09,  avg # of iterations =  2.9

     total cpu time spent up to now is       40.2 secs

     total energy              =    -608.51633010 Ry
     estimated scf accuracy    <       0.00000321 Ry

     iteration #  8     ecut=   100.00 Ry     beta= 0.50
     Davidson diagonalization with overlap
     ethr =  2.35E-09,  avg # of iterations =  2.5

     total cpu time spent up to now is       45.2 secs

     End of self-consistent calculation

          k = 0.0000 0.0000 0.0000 (  8409 PWs)   bands (ev):

   -64.2904 -64.2789 -64.2789 -64.2789 -31.1156 -31.1156 -31.1156 -31.0716
   -31.0716 -31.0716 -31.0716 -31.0716 -31.0716 -31.0431 -31.0431 -31.0431
    -9.1286  -7.5854  -7.5854  -7.5853   4.0215   4.0215   4.0215   6.7284
     6.7284   6.7284   6.7284   6.7284   6.7285   8.0632   8.0632   8.0632
    12.8379  17.2907  17.2907  18.0836  18.0836  18.0836

          k = 0.0000 0.0000 0.2000 (  8501 PWs)   bands (ev):

   -64.2893 -64.2800 -64.2789 -64.2789 -31.1114 -31.1114 -31.1095 -31.0758
   -31.0758 -31.0723 -31.0723 -31.0689 -31.0689 -31.0508 -31.0458 -31.0458
    -8.9846  -7.7348  -7.5636  -7.5636   4.2128   4.2128   4.2479   6.3644
     6.3644   6.5784   6.5784   6.8368   6.8368   7.3531   7.9122   7.9122
    13.6615  17.6208  17.8675  17.8675  17.9372  18.6672

          k = 0.0000 0.0000 0.4000 (  8542 PWs)   bands (ev):

   -64.2864 -64.2829 -64.2789 -64.2789 -31.1003 -31.1003 -31.0927 -31.0868
   -31.0868 -31.0735 -31.0735 -31.0703 -31.0617 -31.0617 -31.0529 -31.0529
    -8.6035  -8.1253  -7.5280  -7.5280   4.7601   4.7601   4.9403   5.5608
     5.5608   6.0583   6.3469   6.3469   7.1366   7.1366   7.5447   7.5447
    15.3077  16.9480  18.6064  19.1278  19.1278  19.9457

          k = 0.0000 0.2000 0.0000 (  8501 PWs)   bands (ev):

   -64.2893 -64.2800 -64.2789 -64.2789 -31.1114 -31.1114 -31.1095 -31.0758
   -31.0758 -31.0723 -31.0723 -31.0689 -31.0689 -31.0508 -31.0458 -31.0458
    -8.9846  -7.7348  -7.5636  -7.5635   4.2128   4.2128   4.2479   6.3644
     6.3644   6.5783   6.5784   6.8368   6.8368   7.3531   7.9122   7.9122
    13.6615  17.6208  17.8675  17.8675  17.9372  18.6672

          k = 0.0000 0.2000 0.2000 (  8512 PWs)   bands (ev):

   -64.2883 -64.2799 -64.2799 -64.2790 -31.1080 -31.1080 -31.1073 -31.0847
   -31.0729 -31.0729 -31.0682 -31.0682 -31.0670 -31.0618 -31.0486 -31.0439
    -8.8483  -7.6962  -7.6962  -7.5568   4.3404   4.3404   4.4003   5.7445
     6.4888   6.4888   6.7057   6.7559   6.7559   6.8624   7.7349   7.9490
    14.2550  18.0103  18.1463  18.3983  18.3983  19.3507

          k = 0.0000 0.2000 0.4000 (  8538 PWs)   bands (ev):

   -64.2857 -64.2825 -64.2796 -64.2793 -31.1033 -31.0972 -31.0966 -31.0953
   -31.0835 -31.0800 -31.0663 -31.0654 -31.0651 -31.0584 -31.0561 -31.0487
    -8.4905  -8.0489  -7.6163  -7.5624   4.6046   4.8051   4.9353   5.0638
     5.6579   5.7140   6.6971   6.8173   6.8340   7.1835   7.3062   7.6583
    15.6414  17.2265  18.7471  18.9614  19.1571  19.2684

          k = 0.0000 0.2000-0.4000 (  8538 PWs)   bands (ev):

   -64.2857 -64.2825 -64.2796 -64.2793 -31.1033 -31.0972 -31.0966 -31.0953
   -31.0835 -31.0800 -31.0663 -31.0654 -31.0651 -31.0584 -31.0561 -31.0487
    -8.4905  -8.0489  -7.6163  -7.5624   4.6046   4.8051   4.9353   5.0638
     5.6579   5.7140   6.6971   6.8173   6.8340   7.1835   7.3062   7.6583
    15.6414  17.2265  18.7471  18.9615  19.1571  19.2684

          k = 0.0000 0.2000-0.2000 (  8512 PWs)   bands (ev):

   -64.2883 -64.2799 -64.2799 -64.2790 -31.1080 -31.1080 -31.1073 -31.0847
   -31.0729 -31.0729 -31.0682 -31.0682 -31.0670 -31.0618 -31.0486 -31.0439
    -8.8483  -7.6962  -7.6962  -7.5568   4.3404   4.3404   4.4003   5.7445
     6.4888   6.4888   6.7057   6.7559   6.7559   6.8624   7.7349   7.9490
    14.2550  18.0103  18.1463  18.3983  18.3983  19.3508

          k = 0.0000 0.4000 0.0000 (  8542 PWs)   bands (ev):

   -64.2864 -64.2829 -64.2789 -64.2789 -31.1003 -31.1003 -31.0927 -31.0868
   -31.0868 -31.0735 -31.0735 -31.0703 -31.0617 -31.0617 -31.0529 -31.0529
    -8.6035  -8.1253  -7.5281  -7.5280   4.7601   4.7601   4.9403   5.5608
     5.5608   6.0583   6.3468   6.3469   7.1366   7.1366   7.5447   7.5447
    15.3077  16.9480  18.6064  19.1278  19.1278  19.9457

          k = 0.0000 0.4000 0.2000 (  8538 PWs)   bands (ev):

   -64.2857 -64.2825 -64.2796 -64.2793 -31.1033 -31.0972 -31.0966 -31.0953
   -31.0835 -31.0800 -31.0663 -31.0654 -31.0651 -31.0584 -31.0561 -31.0487
    -8.4905  -8.0489  -7.6163  -7.5624   4.6046   4.8051   4.9353   5.0638
     5.6579   5.7140   6.6971   6.8173   6.8340   7.1835   7.3062   7.6583
    15.6414  17.2265  18.7471  19.1571  19.2684  20.2428

          k = 0.0000 0.4000 0.4000 (  8510 PWs)   bands (ev):

   -64.2838 -64.2815 -64.2815 -64.2803 -31.1033 -31.1033 -31.1031 -31.0945
   -31.0869 -31.0750 -31.0750 -31.0645 -31.0568 -31.0549 -31.0549 -31.0480
    -8.2019  -7.8654  -7.8654  -7.6776   4.5832   4.5832   4.6169   4.9879
     5.4318   6.1434   6.1434   6.7441   7.2117   7.2690   7.2690   7.6309
    16.5379  17.7945  17.7945  18.2789  19.6317  20.0774

          k = 0.0000 0.4000-0.4000 (  8510 PWs)   bands (ev):

   -64.2838 -64.2815 -64.2815 -64.2803 -31.1033 -31.1033 -31.1031 -31.0945
   -31.0869 -31.0750 -31.0750 -31.0645 -31.0568 -31.0549 -31.0549 -31.0480
    -8.2019  -7.8654  -7.8654  -7.6776   4.5832   4.5832   4.6169   4.9879
     5.4318   6.1434   6.1434   6.7441   7.2117   7.2690   7.2690   7.6309
    16.5379  17.7945  17.7945  18.2789  19.6317  20.0773

          k = 0.0000 0.4000-0.2000 (  8538 PWs)   bands (ev):

   -64.2857 -64.2825 -64.2796 -64.2793 -31.1033 -31.0972 -31.0966 -31.0953
   -31.0835 -31.0800 -31.0663 -31.0654 -31.0651 -31.0584 -31.0561 -31.0487
    -8.4905  -8.0489  -7.6163  -7.5624   4.6046   4.8051   4.9353   5.0638
     5.6579   5.7140   6.6971   6.8173   6.8340   7.1835   7.3062   7.6583
    15.6414  17.2265  18.7471  18.9615  19.1571  19.2684

          k = 0.2000 0.0000 0.0000 (  8501 PWs)   bands (ev):

   -64.2893 -64.2800 -64.2789 -64.2789 -31.1114 -31.1114 -31.1095 -31.0758
   -31.0758 -31.0723 -31.0723 -31.0689 -31.0689 -31.0508 -31.0458 -31.0458
    -8.9846  -7.7348  -7.5636  -7.5636   4.2128   4.2128   4.2479   6.3644
     6.3644   6.5784   6.5784   6.8368   6.8368   7.3531   7.9122   7.9122
    13.6615  17.6208  17.8675  17.8675  17.9372  18.6672

          k = 0.2000 0.0000 0.2000 (  8512 PWs)   bands (ev):

   -64.2883 -64.2799 -64.2799 -64.2790 -31.1080 -31.1080 -31.1073 -31.0847
   -31.0729 -31.0729 -31.0682 -31.0682 -31.0670 -31.0618 -31.0486 -31.0439
    -8.8483  -7.6962  -7.6961  -7.5568   4.3404   4.3404   4.4003   5.7445
     6.4888   6.4889   6.7057   6.7559   6.7559   6.8624   7.7349   7.9490
    14.2550  18.0103  18.1462  18.1463  18.3983  18.3983

          k = 0.2000 0.0000 0.4000 (  8538 PWs)   bands (ev):

   -64.2857 -64.2825 -64.2796 -64.2793 -31.1033 -31.0972 -31.0966 -31.0953
   -31.0835 -31.0800 -31.0663 -31.0654 -31.0651 -31.0584 -31.0561 -31.0487
    -8.4905  -8.0489  -7.6163  -7.5624   4.6046   4.8051   4.9353   5.0638
     5.6579   5.7140   6.6971   6.8173   6.8340   7.1835   7.3062   7.6583
    15.6414  17.2265  18.7471  19.1571  19.2684  20.2432

          k = 0.2000 0.0000-0.4000 (  8538 PWs)   bands (ev):

   -64.2857 -64.2825 -64.2796 -64.2793 -31.1033 -31.0972 -31.0966 -31.0953
   -31.0835 -31.0800 -31.0663 -31.0654 -31.0651 -31.0584 -31.0561 -31.0487
    -8.4905  -8.0489  -7.6163  -7.5624   4.6046   4.8051   4.9353   5.0638
     5.6579   5.7140   6.6971   6.8173   6.8340   7.1835   7.3062   7.6583
    15.6414  17.2265  18.7471  18.9614  19.1571  19.2684

          k = 0.2000 0.0000-0.2000 (  8512 PWs)   bands (ev):

   -64.2883 -64.2799 -64.2799 -64.2790 -31.1080 -31.1080 -31.1073 -31.0847
   -31.0729 -31.0729 -31.0682 -31.0682 -31.0670 -31.0618 -31.0486 -31.0439
    -8.8483  -7.6962  -7.6961  -7.5568   4.3404   4.3404   4.4003   5.7445
     6.4888   6.4889   6.7057   6.7559   6.7559   6.8624   7.7349   7.9490
    14.2550  18.0103  18.1462  18.1463  18.3983  18.3983

          k = 0.2000 0.2000 0.0000 (  8512 PWs)   bands (ev):

   -64.2883 -64.2799 -64.2799 -64.2790 -31.1080 -31.1080 -31.1073 -31.0847
   -31.0729 -31.0729 -31.0682 -31.0682 -31.0670 -31.0618 -31.0486 -31.0439
    -8.8483  -7.6962  -7.6961  -7.5568   4.3404   4.3404   4.4003   5.7445
     6.4888   6.4889   6.7057   6.7559   6.7559   6.8624   7.7349   7.9490
    14.2550  18.0103  18.1463  18.1463  18.3983  18.3983

          k = 0.2000 0.2000 0.2000 (  8517 PWs)   bands (ev):

   -64.2874 -64.2799 -64.2799 -64.2799 -31.1085 -31.1085 -31.1085 -31.0765
   -31.0764 -31.0764 -31.0728 -31.0648 -31.0648 -31.0648 -31.0461 -31.0461
    -8.7203  -7.6719  -7.6719  -7.6718   4.3531   4.3531   4.3531   6.1068
     6.1091   6.1092   6.1092   6.9532   6.9533   6.9533   7.8301   7.8301
    14.6515  17.9659  17.9659  17.9659  19.2158  19.2158

          k = 0.2000 0.2000 0.4000 (  8510 PWs)   bands (ev):

   -64.2851 -64.2822 -64.2799 -64.2799 -31.1096 -31.1096 -31.1041 -31.0906
   -31.0789 -31.0789 -31.0623 -31.0623 -31.0616 -31.0590 -31.0518 -31.0499
    -8.3874  -7.9848  -7.6322  -7.6321   4.3411   4.3411   4.5446   5.1844
     5.8452   5.8453   6.8372   6.9496   6.9497   7.2024   7.5215   7.5360
    15.7320  17.1039  18.2408  18.2408  19.4441  20.0339

          k = 0.2000 0.2000-0.4000 (  8510 PWs)   bands (ev):

   -64.2851 -64.2822 -64.2799 -64.2799 -31.1096 -31.1096 -31.1041 -31.0906
   -31.0789 -31.0789 -31.0623 -31.0623 -31.0616 -31.0590 -31.0518 -31.0499
    -8.3874  -7.9848  -7.6322  -7.6321   4.3411   4.3411   4.5446   5.1844
     5.8452   5.8453   6.8372   6.9496   6.9497   7.2024   7.5215   7.5360
    15.7320  17.1039  18.2408  18.2408  19.4441  20.0339

          k = 0.2000 0.2000-0.2000 (  8517 PWs)   bands (ev):

   -64.2874 -64.2799 -64.2799 -64.2799 -31.1085 -31.1085 -31.1085 -31.0765
   -31.0764 -31.0764 -31.0728 -31.0648 -31.0648 -31.0648 -31.0461 -31.0461
    -8.7203  -7.6719  -7.6719  -7.6718   4.3531   4.3531   4.3531   6.1068
     6.1091   6.1092   6.1092   6.9532   6.9533   6.9533   7.8301   7.8301
    14.6515  17.9659  17.9659  17.9659  19.2158  19.2158

          k = 0.2000 0.4000 0.0000 (  8538 PWs)   bands (ev):

   -64.2857 -64.2825 -64.2796 -64.2793 -31.1033 -31.0972 -31.0966 -31.0953
   -31.0835 -31.0800 -31.0663 -31.0654 -31.0651 -31.0584 -31.0561 -31.0487
    -8.4905  -8.0489  -7.6163  -7.5624   4.6046   4.8051   4.9353   5.0638
     5.6579   5.7140   6.6971   6.8173   6.8340   7.1835   7.3062   7.6583
    15.6414  17.2265  18.7471  19.1571  19.2684  20.2428

          k = 0.2000 0.4000 0.2000 (  8510 PWs)   bands (ev):

   -64.2851 -64.2822 -64.2799 -64.2799 -31.1096 -31.1096 -31.1041 -31.0906
   -31.0789 -31.0789 -31.0623 -31.0623 -31.0616 -31.0590 -31.0518 -31.0499
    -8.3874  -7.9848  -7.6322  -7.6321   4.3411   4.3411   4.5446   5.1844
     5.8452   5.8453   6.8372   6.9496   6.9497   7.2024   7.5215   7.5360
    15.7320  17.1039  18.2408  18.2408  19.4441  20.0339

          k = 0.2000 0.4000 0.4000 (  8499 PWs)   bands (ev):

   -64.2835 -64.2815 -64.2815 -64.2806 -31.1157 -31.1135 -31.1135 -31.1059
   -31.0720 -31.0655 -31.0655 -31.0567 -31.0560 -31.0548 -31.0548 -31.0488
    -8.1287  -7.8373  -7.8373  -7.7009   4.0448   4.1381   4.1381   4.4786
     6.1921   6.6032   6.6032   7.1653   7.2498   7.2895   7.2895   7.5890
    16.2058  17.1556  17.1556  17.5297  20.1205  20.3550

          k = 0.2000 0.4000-0.4000 (  8499 PWs)   bands (ev):

   -64.2835 -64.2815 -64.2815 -64.2806 -31.1157 -31.1135 -31.1135 -31.1059
   -31.0720 -31.0655 -31.0655 -31.0567 -31.0560 -31.0548 -31.0548 -31.0488
    -8.1287  -7.8373  -7.8373  -7.7009   4.0448   4.1381   4.1381   4.4786
     6.1921   6.6032   6.6032   7.1653   7.2498   7.2895   7.2895   7.5890
    16.2058  17.1556  17.1556  17.5297  20.1207  20.3554

          k = 0.2000 0.4000-0.2000 (  8510 PWs)   bands (ev):

   -64.2851 -64.2822 -64.2799 -64.2799 -31.1096 -31.1096 -31.1041 -31.0906
   -31.0789 -31.0789 -31.0623 -31.0623 -31.0616 -31.0590 -31.0518 -31.0499
    -8.3874  -7.9848  -7.6322  -7.6321   4.3411   4.3411   4.5446   5.1844
     5.8452   5.8453   6.8372   6.9496   6.9497   7.2024   7.5215   7.5360
    15.7320  17.1039  18.2408  18.2408  19.4441  20.0339

          k = 0.2000-0.4000 0.0000 (  8538 PWs)   bands (ev):

   -64.2857 -64.2825 -64.2796 -64.2793 -31.1033 -31.0972 -31.0966 -31.0953
   -31.0835 -31.0800 -31.0663 -31.0654 -31.0651 -31.0584 -31.0561 -31.0487
    -8.4905  -8.0489  -7.6163  -7.5624   4.6046   4.8051   4.9353   5.0638
     5.6579   5.7140   6.6971   6.8173   6.8340   7.1835   7.3062   7.6583
    15.6414  17.2265  18.7471  18.9615  19.1571  19.2684

          k = 0.2000-0.4000 0.2000 (  8510 PWs)   bands (ev):

   -64.2851 -64.2822 -64.2799 -64.2799 -31.1096 -31.1096 -31.1041 -31.0906
   -31.0789 -31.0789 -31.0623 -31.0623 -31.0616 -31.0590 -31.0518 -31.0499
    -8.3874  -7.9848  -7.6322  -7.6321   4.3411   4.3411   4.5446   5.1844
     5.8452   5.8453   6.8372   6.9496   6.9497   7.2024   7.5215   7.5360
    15.7320  17.1039  18.2408  18.2408  19.4441  20.0339

          k = 0.2000-0.4000 0.4000 (  8499 PWs)   bands (ev):

   -64.2835 -64.2815 -64.2815 -64.2806 -31.1157 -31.1135 -31.1135 -31.1059
   -31.0720 -31.0655 -31.0655 -31.0567 -31.0560 -31.0548 -31.0548 -31.0488
    -8.1287  -7.8373  -7.8373  -7.7009   4.0448   4.1381   4.1381   4.4786
     6.1921   6.6032   6.6032   7.1653   7.2498   7.2895   7.2895   7.5890
    16.2058  17.1556  17.1556  17.5297  20.1206  20.3550

          k = 0.2000-0.4000-0.4000 (  8499 PWs)   bands (ev):

   -64.2835 -64.2815 -64.2815 -64.2806 -31.1157 -31.1135 -31.1135 -31.1059
   -31.0720 -31.0655 -31.0655 -31.0567 -31.0560 -31.0548 -31.0548 -31.0488
    -8.1287  -7.8373  -7.8373  -7.7009   4.0448   4.1381   4.1381   4.4786
     6.1921   6.6032   6.6032   7.1653   7.2498   7.2895   7.2895   7.5890
    16.2058  17.1556  17.1556  17.5297  20.1206  20.3552

          k = 0.2000-0.4000-0.2000 (  8510 PWs)   bands (ev):

   -64.2851 -64.2822 -64.2799 -64.2799 -31.1096 -31.1096 -31.1041 -31.0906
   -31.0789 -31.0789 -31.0623 -31.0623 -31.0616 -31.0590 -31.0518 -31.0499
    -8.3874  -7.9848  -7.6322  -7.6321   4.3411   4.3411   4.5446   5.1844
     5.8452   5.8453   6.8372   6.9496   6.9497   7.2024   7.5215   7.5360
    15.7320  17.1039  18.2408  18.2408  19.4441  20.0339

          k = 0.2000-0.2000 0.0000 (  8512 PWs)   bands (ev):

   -64.2883 -64.2799 -64.2799 -64.2790 -31.1080 -31.1080 -31.1073 -31.0847
   -31.0729 -31.0729 -31.0682 -31.0682 -31.0670 -31.0618 -31.0486 -31.0439
    -8.8483  -7.6962  -7.6961  -7.5568   4.3404   4.3404   4.4003   5.7445
     6.4888   6.4889   6.7057   6.7559   6.7559   6.8624   7.7349   7.9490
    14.2550  18.0103  18.1463  18.1463  18.3983  18.3983

          k = 0.2000-0.2000 0.2000 (  8517 PWs)   bands (ev):

   -64.2874 -64.2799 -64.2799 -64.2799 -31.1085 -31.1085 -31.1085 -31.0765
   -31.0764 -31.0764 -31.0728 -31.0648 -31.0648 -31.0648 -31.0461 -31.0461
    -8.7203  -7.6719  -7.6719  -7.6718   4.3531   4.3531   4.3531   6.1068
     6.1091   6.1092   6.1092   6.9532   6.9533   6.9533   7.8301   7.8301
    14.6515  17.9659  17.9659  17.9659  19.2158  19.2158

          k = 0.2000-0.2000 0.4000 (  8510 PWs)   bands (ev):

   -64.2851 -64.2822 -64.2799 -64.2799 -31.1096 -31.1096 -31.1041 -31.0906
   -31.0789 -31.0789 -31.0623 -31.0623 -31.0616 -31.0590 -31.0518 -31.0499
    -8.3874  -7.9848  -7.6322  -7.6321   4.3411   4.3411   4.5446   5.1844
     5.8452   5.8453   6.8372   6.9496   6.9497   7.2025   7.5215   7.5360
    15.7320  17.1039  18.2408  18.2408  19.4441  20.0339

          k = 0.2000-0.2000-0.4000 (  8510 PWs)   bands (ev):

   -64.2851 -64.2822 -64.2799 -64.2799 -31.1096 -31.1096 -31.1041 -31.0906
   -31.0789 -31.0789 -31.0623 -31.0623 -31.0616 -31.0590 -31.0518 -31.0499
    -8.3874  -7.9848  -7.6322  -7.6321   4.3411   4.3411   4.5446   5.1844
     5.8452   5.8453   6.8372   6.9496   6.9497   7.2025   7.5215   7.5360
    15.7320  17.1039  18.2408  18.2408  19.4441  20.0339

          k = 0.2000-0.2000-0.2000 (  8517 PWs)   bands (ev):

   -64.2874 -64.2799 -64.2799 -64.2799 -31.1085 -31.1085 -31.1085 -31.0765
   -31.0764 -31.0764 -31.0728 -31.0648 -31.0648 -31.0648 -31.0461 -31.0461
    -8.7203  -7.6719  -7.6719  -7.6718   4.3531   4.3531   4.3531   6.1068
     6.1091   6.1092   6.1092   6.9532   6.9533   6.9533   7.8301   7.8301
    14.6515  17.9659  17.9659  17.9659  19.2158  19.2158

          k = 0.4000 0.0000 0.0000 (  8542 PWs)   bands (ev):

   -64.2864 -64.2829 -64.2789 -64.2789 -31.1003 -31.1003 -31.0927 -31.0868
   -31.0868 -31.0735 -31.0735 -31.0703 -31.0617 -31.0617 -31.0529 -31.0529
    -8.6035  -8.1253  -7.5280  -7.5280   4.7601   4.7601   4.9403   5.5608
     5.5608   6.0583   6.3469   6.3469   7.1366   7.1366   7.5447   7.5447
    15.3077  16.9480  18.6064  19.1278  19.9456  19.9457

          k = 0.4000 0.0000 0.2000 (  8538 PWs)   bands (ev):

   -64.2857 -64.2825 -64.2796 -64.2793 -31.1033 -31.0972 -31.0966 -31.0953
   -31.0835 -31.0800 -31.0663 -31.0654 -31.0651 -31.0584 -31.0561 -31.0487
    -8.4905  -8.0489  -7.6163  -7.5624   4.6046   4.8051   4.9353   5.0638
     5.6579   5.7140   6.6971   6.8173   6.8340   7.1835   7.3062   7.6583
    15.6414  17.2265  18.7471  18.9614  19.1571  19.2684

          k = 0.4000 0.0000 0.4000 (  8510 PWs)   bands (ev):

   -64.2838 -64.2815 -64.2815 -64.2803 -31.1033 -31.1032 -31.1031 -31.0945
   -31.0869 -31.0750 -31.0750 -31.0645 -31.0568 -31.0549 -31.0549 -31.0480
    -8.2019  -7.8655  -7.8653  -7.6776   4.5832   4.5833   4.6169   4.9879
     5.4318   6.1433   6.1434   6.7441   7.2117   7.2689   7.2690   7.6309
    16.5379  17.7945  17.7945  18.2789  19.6316  19.6318

          k = 0.4000 0.0000-0.4000 (  8510 PWs)   bands (ev):

   -64.2838 -64.2815 -64.2815 -64.2803 -31.1033 -31.1032 -31.1031 -31.0945
   -31.0869 -31.0750 -31.0750 -31.0645 -31.0568 -31.0549 -31.0549 -31.0480
    -8.2019  -7.8655  -7.8653  -7.6776   4.5832   4.5833   4.6169   4.9879
     5.4318   6.1433   6.1434   6.7441   7.2117   7.2689   7.2690   7.6309
    16.5379  17.7945  17.7945  18.2789  19.6318  20.0768

          k = 0.4000 0.0000-0.2000 (  8538 PWs)   bands (ev):

   -64.2857 -64.2825 -64.2796 -64.2793 -31.1033 -31.0972 -31.0966 -31.0953
   -31.0835 -31.0800 -31.0663 -31.0654 -31.0651 -31.0584 -31.0561 -31.0487
    -8.4905  -8.0489  -7.6163  -7.5624   4.6046   4.8051   4.9353   5.0638
     5.6579   5.7140   6.6971   6.8173   6.8340   7.1835   7.3062   7.6583
    15.6414  17.2265  18.7471  18.9615  19.1571  19.2684

          k = 0.4000 0.2000 0.0000 (  8538 PWs)   bands (ev):

   -64.2857 -64.2825 -64.2796 -64.2793 -31.1033 -31.0972 -31.0966 -31.0953
   -31.0835 -31.0800 -31.0663 -31.0654 -31.0651 -31.0584 -31.0561 -31.0487
    -8.4905  -8.0489  -7.6163  -7.5624   4.6046   4.8051   4.9353   5.0638
     5.6579   5.7140   6.6971   6.8173   6.8340   7.1835   7.3062   7.6583
    15.6414  17.2265  18.7471  19.1572  19.2683  20.2428

          k = 0.4000 0.2000 0.2000 (  8510 PWs)   bands (ev):

   -64.2851 -64.2822 -64.2799 -64.2799 -31.1096 -31.1096 -31.1041 -31.0906
   -31.0789 -31.0789 -31.0623 -31.0623 -31.0616 -31.0590 -31.0518 -31.0499
    -8.3874  -7.9848  -7.6321  -7.6321   4.3411   4.3411   4.5446   5.1844
     5.8453   5.8453   6.8372   6.9496   6.9496   7.2024   7.5215   7.5360
    15.7320  17.1039  18.2408  18.2408  19.4441  20.0339

          k = 0.4000 0.2000 0.4000 (  8499 PWs)   bands (ev):

   -64.2835 -64.2815 -64.2815 -64.2806 -31.1157 -31.1135 -31.1135 -31.1059
   -31.0720 -31.0655 -31.0654 -31.0567 -31.0560 -31.0548 -31.0548 -31.0488
    -8.1287  -7.8374  -7.8373  -7.7009   4.0448   4.1381   4.1381   4.4786
     6.1921   6.6031   6.6032   7.1653   7.2498   7.2895   7.2896   7.5890
    16.2058  17.1556  17.1556  17.5297  20.1206  20.3539

          k = 0.4000 0.2000-0.4000 (  8499 PWs)   bands (ev):

   -64.2835 -64.2815 -64.2815 -64.2806 -31.1157 -31.1135 -31.1135 -31.1059
   -31.0720 -31.0655 -31.0654 -31.0567 -31.0560 -31.0548 -31.0548 -31.0488
    -8.1287  -7.8374  -7.8373  -7.7009   4.0448   4.1381   4.1381   4.4786
     6.1921   6.6031   6.6032   7.1653   7.2498   7.2895   7.2896   7.5890
    16.2058  17.1556  17.1556  17.5297  20.1206  20.3554

          k = 0.4000 0.2000-0.2000 (  8510 PWs)   bands (ev):

   -64.2851 -64.2822 -64.2799 -64.2799 -31.1096 -31.1096 -31.1041 -31.0906
   -31.0789 -31.0789 -31.0623 -31.0623 -31.0616 -31.0590 -31.0518 -31.0499
    -8.3874  -7.9848  -7.6321  -7.6321   4.3411   4.3411   4.5446   5.1844
     5.8453   5.8453   6.8372   6.9496   6.9496   7.2024   7.5215   7.5360
    15.7320  17.1039  18.2408  18.2408  19.4441  20.0339

          k = 0.4000 0.4000 0.0000 (  8510 PWs)   bands (ev):

   -64.2838 -64.2815 -64.2815 -64.2803 -31.1033 -31.1032 -31.1031 -31.0945
   -31.0869 -31.0750 -31.0750 -31.0645 -31.0568 -31.0549 -31.0549 -31.0480
    -8.2019  -7.8654  -7.8654  -7.6776   4.5832   4.5833   4.6169   4.9879
     5.4318   6.1434   6.1434   6.7441   7.2117   7.2690   7.2690   7.6309
    16.5379  17.7945  17.7945  18.2789  19.6317  20.0773

          k = 0.4000 0.4000 0.2000 (  8499 PWs)   bands (ev):

   -64.2835 -64.2815 -64.2815 -64.2806 -31.1157 -31.1135 -31.1135 -31.1059
   -31.0720 -31.0655 -31.0655 -31.0567 -31.0560 -31.0548 -31.0548 -31.0488
    -8.1287  -7.8374  -7.8373  -7.7009   4.0448   4.1381   4.1381   4.4786
     6.1921   6.6032   6.6032   7.1653   7.2498   7.2895   7.2895   7.5890
    16.2058  17.1556  17.1556  17.5297  20.1207  20.3553

          k = 0.4000 0.4000 0.4000 (  8465 PWs)   bands (ev):

   -64.2826 -64.2815 -64.2815 -64.2815 -31.1246 -31.1246 -31.1246 -31.1205
   -31.0565 -31.0565 -31.0565 -31.0537 -31.0537 -31.0537 -31.0510 -31.0510
    -7.9569  -7.7913  -7.7913  -7.7912   3.6472   3.6473   3.6473   3.8283
     7.0930   7.0931   7.0931   7.3514   7.3514   7.3515   7.4810   7.4810
    15.9512  16.4583  16.4583  16.4583  20.5584  20.5585

          k = 0.4000 0.4000-0.4000 (  8465 PWs)   bands (ev):

   -64.2826 -64.2815 -64.2815 -64.2815 -31.1246 -31.1246 -31.1246 -31.1205
   -31.0565 -31.0565 -31.0565 -31.0537 -31.0537 -31.0537 -31.0510 -31.0510
    -7.9569  -7.7913  -7.7913  -7.7912   3.6472   3.6473   3.6473   3.8283
     7.0930   7.0931   7.0931   7.3514   7.3514   7.3515   7.4810   7.4810
    15.9512  16.4583  16.4583  16.4583  20.5584  20.5585

          k = 0.4000 0.4000-0.2000 (  8499 PWs)   bands (ev):

   -64.2835 -64.2815 -64.2815 -64.2806 -31.1157 -31.1135 -31.1135 -31.1059
   -31.0720 -31.0655 -31.0655 -31.0567 -31.0560 -31.0548 -31.0548 -31.0488
    -8.1287  -7.8374  -7.8373  -7.7009   4.0448   4.1381   4.1381   4.4786
     6.1921   6.6032   6.6032   7.1653   7.2498   7.2895   7.2895   7.5890
    16.2058  17.1556  17.1556  17.5297  20.1206  20.3554

          k = 0.4000-0.4000 0.0000 (  8510 PWs)   bands (ev):

   -64.2838 -64.2815 -64.2815 -64.2803 -31.1033 -31.1032 -31.1031 -31.0945
   -31.0869 -31.0750 -31.0750 -31.0645 -31.0568 -31.0549 -31.0549 -31.0480
    -8.2019  -7.8654  -7.8654  -7.6776   4.5832   4.5833   4.6169   4.9879
     5.4318   6.1434   6.1434   6.7441   7.2117   7.2690   7.2690   7.6309
    16.5379  17.7945  17.7945  18.2789  19.6319  20.0774

          k = 0.4000-0.4000 0.2000 (  8499 PWs)   bands (ev):

   -64.2835 -64.2815 -64.2815 -64.2806 -31.1157 -31.1135 -31.1135 -31.1059
   -31.0720 -31.0655 -31.0655 -31.0567 -31.0560 -31.0548 -31.0548 -31.0488
    -8.1287  -7.8374  -7.8373  -7.7009   4.0448   4.1381   4.1381   4.4786
     6.1921   6.6032   6.6032   7.1653   7.2498   7.2895   7.2895   7.5890
    16.2058  17.1556  17.1556  17.5297  20.1209  20.3554

          k = 0.4000-0.4000 0.4000 (  8465 PWs)   bands (ev):

   -64.2826 -64.2815 -64.2815 -64.2815 -31.1246 -31.1246 -31.1246 -31.1205
   -31.0565 -31.0565 -31.0565 -31.0537 -31.0537 -31.0537 -31.0510 -31.0510
    -7.9569  -7.7913  -7.7913  -7.7912   3.6472   3.6473   3.6473   3.8283
     7.0930   7.0931   7.0931   7.3514   7.3514   7.3515   7.4810   7.4810
    15.9512  16.4583  16.4583  16.4583  20.5584  20.5585

          k = 0.4000-0.4000-0.4000 (  8465 PWs)   bands (ev):

   -64.2826 -64.2815 -64.2815 -64.2815 -31.1246 -31.1246 -31.1246 -31.1205
   -31.0565 -31.0565 -31.0565 -31.0537 -31.0537 -31.0537 -31.0510 -31.0510
    -7.9569  -7.7913  -7.7913  -7.7912   3.6472   3.6473   3.6473   3.8283
     7.0930   7.0931   7.0931   7.3514   7.3514   7.3515   7.4810   7.4810
    15.9512  16.4583  16.4583  16.4583  20.5584  20.5585

          k = 0.4000-0.4000-0.2000 (  8499 PWs)   bands (ev):

   -64.2835 -64.2815 -64.2815 -64.2806 -31.1157 -31.1135 -31.1135 -31.1059
   -31.0720 -31.0655 -31.0655 -31.0567 -31.0560 -31.0548 -31.0548 -31.0488
    -8.1287  -7.8374  -7.8373  -7.7009   4.0448   4.1381   4.1381   4.4786
     6.1921   6.6032   6.6032   7.1653   7.2498   7.2895   7.2895   7.5890
    16.2058  17.1556  17.1556  17.5297  20.1205  20.3553

          k = 0.4000-0.2000 0.0000 (  8538 PWs)   bands (ev):

   -64.2857 -64.2825 -64.2796 -64.2793 -31.1033 -31.0972 -31.0966 -31.0953
   -31.0835 -31.0800 -31.0663 -31.0654 -31.0651 -31.0584 -31.0561 -31.0487
    -8.4905  -8.0489  -7.6163  -7.5624   4.6046   4.8051   4.9353   5.0638
     5.6579   5.7140   6.6971   6.8173   6.8340   7.1835   7.3062   7.6583
    15.6414  17.2265  18.7471  18.9614  19.1571  19.2684

          k = 0.4000-0.2000 0.2000 (  8510 PWs)   bands (ev):

   -64.2851 -64.2822 -64.2799 -64.2799 -31.1096 -31.1096 -31.1041 -31.0906
   -31.0789 -31.0789 -31.0623 -31.0623 -31.0616 -31.0590 -31.0518 -31.0499
    -8.3874  -7.9848  -7.6321  -7.6321   4.3411   4.3411   4.5446   5.1844
     5.8453   5.8453   6.8372   6.9496   6.9496   7.2024   7.5215   7.5360
    15.7320  17.1039  18.2408  18.2408  19.4441  20.0339

          k = 0.4000-0.2000 0.4000 (  8499 PWs)   bands (ev):

   -64.2835 -64.2815 -64.2815 -64.2806 -31.1157 -31.1135 -31.1135 -31.1059
   -31.0720 -31.0655 -31.0654 -31.0567 -31.0560 -31.0548 -31.0548 -31.0488
    -8.1287  -7.8374  -7.8373  -7.7009   4.0448   4.1381   4.1381   4.4786
     6.1921   6.6031   6.6032   7.1653   7.2498   7.2895   7.2896   7.5890
    16.2058  17.1556  17.1556  17.5297  20.1206  20.3554

          k = 0.4000-0.2000-0.4000 (  8499 PWs)   bands (ev):

   -64.2835 -64.2815 -64.2815 -64.2806 -31.1157 -31.1135 -31.1135 -31.1059
   -31.0720 -31.0655 -31.0654 -31.0567 -31.0560 -31.0548 -31.0548 -31.0488
    -8.1287  -7.8374  -7.8373  -7.7009   4.0448   4.1381   4.1381   4.4786
     6.1921   6.6031   6.6032   7.1653   7.2498   7.2895   7.2896   7.5890
    16.2058  17.1556  17.1556  17.5297  20.1210  20.3534

          k = 0.4000-0.2000-0.2000 (  8510 PWs)   bands (ev):

   -64.2851 -64.2822 -64.2799 -64.2799 -31.1096 -31.1096 -31.1041 -31.0906
   -31.0789 -31.0789 -31.0623 -31.0623 -31.0616 -31.0590 -31.0518 -31.0499
    -8.3874  -7.9848  -7.6321  -7.6321   4.3411   4.3411   4.5446   5.1844
     5.8453   5.8453   6.8372   6.9496   6.9496   7.2024   7.5215   7.5360
    15.7320  17.1039  18.2408  18.2408  19.4441  20.0339

     the Fermi energy is    10.0544 ev

!    total energy              =    -608.51633070 Ry
     estimated scf accuracy    <       0.00000002 Ry
     smearing contrib. (-TS)   =      -0.00000000 Ry
     internal energy E=F+TS    =    -608.51633070 Ry

     The total energy is F=E-TS. E is the sum of the following terms:
     one-electron contribution =    -297.28485513 Ry
     hartree contribution      =     166.02663794 Ry
     xc contribution           =     -97.98764698 Ry
     ewald contribution        =    -379.16241501 Ry
     DFT-D3 Dispersion         =      -0.10805152 Ry

     convergence has been achieved in   8 iterations

     Forces acting on atoms (cartesian axes, Ry/au):

     atom    1 type  1   force =     0.00000019    0.00000064   -0.00000025
     atom    2 type  1   force =     0.00000006    0.00000052   -0.00000001
     atom    3 type  1   force =    -0.00000013    0.00000001   -0.00000018
     atom    4 type  1   force =    -0.00000007   -0.00000112    0.00000051
     atom    5 type  2   force =    -0.00000020    0.00000007   -0.00000054
     atom    6 type  2   force =     0.00000009    0.00000073    0.00000016
     atom    7 type  2   force =    -0.00000012   -0.00000046    0.00000006
     atom    8 type  2   force =     0.00000019   -0.00000039    0.00000026

     Total force =     0.000002     Total SCF correction =     0.000016
     SCF correction compared to forces is large: reduce conv_thr to get better values


     Computing stress (Cartesian axis) and pressure

          total   stress  (Ry/bohr**3)                   (kbar)     P=       12.04
   0.00008183   0.00000000   0.00000000           12.04        0.00        0.00
   0.00000000   0.00008183  -0.00000000            0.00       12.04       -0.00
   0.00000000  -0.00000000   0.00008183            0.00       -0.00       12.04


     BFGS Geometry Optimization

     number of scf cycles    =   1
     number of bfgs steps    =   0

     enthalpy new            =    -608.4306930682 Ry

     new trust radius        =       0.0098901908 bohr
     new conv_thr            =       0.0000010000 Ry

     new unit-cell volume =    500.58641 a.u.^3 (    74.17925 Ang^3 )
     density =      3.60890 g/cm^3

CELL_PARAMETERS (angstrom)
   4.201723790   0.000000098   0.000000009
   0.000000098   4.201723601  -0.000000077
   0.000000009  -0.000000077   4.201723508

ATOMIC_POSITIONS (angstrom)
Mg            0.0000001026        0.0000003393       -0.0000001329
Mg            0.0000000854        2.1008620343        2.1008617081
Mg            2.1008618291        0.0000000144        2.1008616622
Mg            2.1008619069        2.1008612587        0.0000002363
O             2.1008618406        2.1008618472        2.1008614358
O             2.1008619400        0.0000004359        0.0000000871
O            -0.0000000155        2.1008615577       -0.0000000093
O             0.0000001047       -0.0000002429        2.1008618932


     NEW-OLD atomic charge density approx. for the potential
     extrapolated charge   63.57520, renormalised to   64.00000

     total cpu time spent up to now is       56.2 secs

     Self-consistent Calculation

     iteration #  1     ecut=   100.00 Ry     beta= 0.50
     Davidson diagonalization with overlap
     ethr =  1.00E-06,  avg # of iterations =  3.3

     total cpu time spent up to now is       66.0 secs

     total energy              =    -608.51003040 Ry
     estimated scf accuracy    <       0.00348907 Ry

     iteration #  2     ecut=   100.00 Ry     beta= 0.50
     Davidson diagonalization with overlap
     ethr =  5.45E-06,  avg # of iterations =  3.4

     total cpu time spent up to now is       72.5 secs

     total energy              =    -608.51606183 Ry
     estimated scf accuracy    <       0.00481516 Ry

     iteration #  3     ecut=   100.00 Ry     beta= 0.50
     Davidson diagonalization with overlap
     ethr =  5.45E-06,  avg # of iterations =  2.0

     total cpu time spent up to now is       77.0 secs

     total energy              =    -608.51603091 Ry
     estimated scf accuracy    <       0.00107723 Ry

     iteration #  4     ecut=   100.00 Ry     beta= 0.50
     Davidson diagonalization with overlap
     ethr =  1.68E-06,  avg # of iterations =  1.8

     total cpu time spent up to now is       81.2 secs

     total energy              =    -608.51587686 Ry
     estimated scf accuracy    <       0.00035155 Ry

     iteration #  5     ecut=   100.00 Ry     beta= 0.50
     Davidson diagonalization with overlap
     ethr =  5.49E-07,  avg # of iterations =  2.1

     total cpu time spent up to now is       86.5 secs

     End of self-consistent calculation

          k = 0.0000 0.0000 0.0000 (  8409 PWs)   bands (ev):

   -64.1868 -64.1750 -64.1749 -64.1749 -31.0139 -31.0139 -31.0139 -30.9688
   -30.9688 -30.9688 -30.9688 -30.9688 -30.9688 -30.9395 -30.9395 -30.9395
    -9.0788  -7.5165  -7.5164  -7.5161   4.0778   4.0778   4.0778   6.8021
     6.8022   6.8023   6.8023   6.8023   6.8024   8.1462   8.1462   8.1462
    12.9855  17.3822  17.3822  18.2382  18.2382  18.2382

          k =-0.0000 0.0000 0.2004 (  8501 PWs)   bands (ev):

   -64.1857 -64.1761 -64.1749 -64.1749 -31.0096 -31.0096 -31.0076 -30.9731
   -30.9731 -30.9695 -30.9695 -30.9659 -30.9659 -30.9474 -30.9422 -30.9422
    -8.9331  -7.6677  -7.4942  -7.4940   4.2700   4.2700   4.3066   6.4352
     6.4352   6.6512   6.6513   6.9113   6.9113   7.4348   7.9940   7.9940
    13.8085  17.7138  17.9668  17.9668  18.0924  18.8240

          k =-0.0000 0.0000 0.4009 (  8542 PWs)   bands (ev):

   -64.1827 -64.1790 -64.1749 -64.1749 -30.9983 -30.9983 -30.9904 -30.9843
   -30.9843 -30.9707 -30.9706 -30.9674 -30.9586 -30.9586 -30.9495 -30.9495
    -8.5473  -8.0632  -7.4578  -7.4577   4.8202   4.8202   5.0060   5.6258
     5.6258   6.1330   6.4181   6.4182   7.2129   7.2129   7.6237   7.6237
    15.4569  17.1011  18.7038  19.2459  19.2459  20.1075

          k =-0.0000 0.2004 0.0000 (  8501 PWs)   bands (ev):

   -64.1857 -64.1761 -64.1749 -64.1749 -31.0096 -31.0096 -31.0076 -30.9731
   -30.9731 -30.9695 -30.9695 -30.9659 -30.9659 -30.9474 -30.9422 -30.9422
    -8.9331  -7.6677  -7.4943  -7.4939   4.2700   4.2700   4.3066   6.4352
     6.4352   6.6511   6.6514   6.9113   6.9113   7.4348   7.9940   7.9940
    13.8085  17.7138  17.9668  17.9668  18.0924  18.8240

          k =-0.0000 0.2004 0.2004 (  8512 PWs)   bands (ev):

   -64.1846 -64.1760 -64.1759 -64.1750 -31.0061 -31.0061 -31.0054 -30.9822
   -30.9701 -30.9701 -30.9652 -30.9652 -30.9640 -30.9587 -30.9452 -30.9403
    -8.7951  -7.6284  -7.6284  -7.4870   4.3996   4.3996   4.4584   5.8117
     6.5604   6.5604   6.7845   6.8295   6.8295   6.9364   7.8152   8.0303
    14.4022  18.1210  18.2470  18.2470  18.5543  18.5543

          k =-0.0000 0.2004 0.4009 (  8538 PWs)   bands (ev):

   -64.1819 -64.1786 -64.1757 -64.1753 -31.0013 -30.9950 -30.9944 -30.9931
   -30.9810 -30.9774 -30.9633 -30.9624 -30.9620 -30.9552 -30.9528 -30.9452
    -8.4328  -7.9856  -7.5471  -7.4925   4.6650   4.8698   4.9964   5.1266
     5.7302   5.7799   6.7697   6.8905   6.9077   7.2593   7.3832   7.7372
    15.7901  17.3786  18.8710  19.0663  19.3048  19.3873

          k =-0.0000 0.2004-0.4009 (  8538 PWs)   bands (ev):

   -64.1819 -64.1786 -64.1757 -64.1753 -31.0013 -30.9950 -30.9944 -30.9931
   -30.9810 -30.9774 -30.9633 -30.9624 -30.9620 -30.9552 -30.9528 -30.9452
    -8.4328  -7.9856  -7.5471  -7.4925   4.6650   4.8698   4.9964   5.1266
     5.7302   5.7799   6.7697   6.8905   6.9077   7.2593   7.3832   7.7372
    15.7901  17.3786  18.8710  19.0663  19.3048  19.3873

          k =-0.0000 0.2004-0.2004 (  8512 PWs)   bands (ev):

   -64.1846 -64.1760 -64.1759 -64.1750 -31.0061 -31.0061 -31.0054 -30.9822
   -30.9701 -30.9701 -30.9652 -30.9652 -30.9640 -30.9587 -30.9452 -30.9403
    -8.7951  -7.6284  -7.6284  -7.4870   4.3996   4.3996   4.4584   5.8117
     6.5604   6.5604   6.7845   6.8295   6.8296   6.9364   7.8152   8.0303
    14.4022  18.1210  18.2470  18.2470  18.5543  18.5543

          k =-0.0000 0.4009 0.0000 (  8542 PWs)   bands (ev):

   -64.1827 -64.1790 -64.1749 -64.1749 -30.9983 -30.9983 -30.9904 -30.9843
   -30.9843 -30.9707 -30.9707 -30.9674 -30.9586 -30.9586 -30.9495 -30.9495
    -8.5473  -8.0632  -7.4580  -7.4576   4.8202   4.8202   5.0060   5.6258
     5.6258   6.1330   6.4179   6.4183   7.2129   7.2129   7.6237   7.6237
    15.4569  17.1011  18.7038  19.2459  19.2459  20.1075

          k =-0.0000 0.4009 0.2004 (  8538 PWs)   bands (ev):

   -64.1819 -64.1786 -64.1757 -64.1753 -31.0013 -30.9950 -30.9944 -30.9931
   -30.9810 -30.9774 -30.9633 -30.9624 -30.9620 -30.9552 -30.9528 -30.9452
    -8.4328  -7.9856  -7.5471  -7.4925   4.6650   4.8698   4.9964   5.1266
     5.7302   5.7799   6.7697   6.8905   6.9077   7.2593   7.3832   7.7372
    15.7901  17.3786  18.8710  19.0663  19.3048  19.3873

          k =-0.0000 0.4009 0.4009 (  8510 PWs)   bands (ev):

   -64.1800 -64.1776 -64.1776 -64.1763 -31.0013 -31.0013 -31.0012 -30.9923
   -30.9845 -30.9722 -30.9722 -30.9615 -30.9536 -30.9516 -30.9516 -30.9445
    -8.1404  -7.7994  -7.7994  -7.6089   4.6457   4.6457   4.6781   5.0550
     5.4957   6.2119   6.2119   6.8167   7.2866   7.3443   7.3444   7.7086
    16.6854  17.9410  17.9410  18.4136  19.7524  20.2096

          k =-0.0000 0.4009-0.4009 (  8510 PWs)   bands (ev):

   -64.1800 -64.1776 -64.1776 -64.1763 -31.0013 -31.0013 -31.0012 -30.9923
   -30.9845 -30.9722 -30.9722 -30.9615 -30.9535 -30.9516 -30.9516 -30.9445
    -8.1404  -7.7994  -7.7994  -7.6089   4.6457   4.6457   4.6781   5.0550
     5.4957   6.2119   6.2119   6.8167   7.2866   7.3443   7.3444   7.7086
    16.6854  17.9410  17.9410  18.4136  19.7524  20.2091

          k =-0.0000 0.4009-0.2004 (  8538 PWs)   bands (ev):

   -64.1819 -64.1786 -64.1757 -64.1753 -31.0013 -30.9950 -30.9944 -30.9931
   -30.9810 -30.9774 -30.9633 -30.9624 -30.9620 -30.9552 -30.9528 -30.9452
    -8.4328  -7.9856  -7.5471  -7.4925   4.6650   4.8698   4.9964   5.1266
     5.7302   5.7799   6.7697   6.8905   6.9077   7.2593   7.3832   7.7372
    15.7901  17.3786  18.8710  19.0663  19.3048  19.3873

          k = 0.2004-0.0000-0.0000 (  8501 PWs)   bands (ev):

   -64.1857 -64.1761 -64.1749 -64.1749 -31.0096 -31.0096 -31.0076 -30.9731
   -30.9731 -30.9695 -30.9695 -30.9659 -30.9659 -30.9474 -30.9422 -30.9422
    -8.9331  -7.6677  -7.4941  -7.4941   4.2700   4.2700   4.3066   6.4352
     6.4352   6.6512   6.6513   6.9113   6.9113   7.4348   7.9940   7.9940
    13.8085  17.7138  17.9668  17.9668  18.0924  18.8240

          k = 0.2004-0.0000 0.2004 (  8512 PWs)   bands (ev):

   -64.1846 -64.1760 -64.1759 -64.1750 -31.0061 -31.0061 -31.0054 -30.9822
   -30.9701 -30.9701 -30.9652 -30.9652 -30.9640 -30.9587 -30.9452 -30.9403
    -8.7951  -7.6286  -7.6282  -7.4870   4.3995   4.3996   4.4584   5.8117
     6.5602   6.5606   6.7845   6.8295   6.8296   6.9364   7.8152   8.0303
    14.4022  18.1210  18.2470  18.2470  18.5543  18.5543

          k = 0.2004 0.0000 0.4009 (  8538 PWs)   bands (ev):

   -64.1819 -64.1786 -64.1757 -64.1753 -31.0013 -30.9950 -30.9944 -30.9931
   -30.9810 -30.9774 -30.9633 -30.9624 -30.9620 -30.9552 -30.9528 -30.9452
    -8.4328  -7.9856  -7.5471  -7.4925   4.6650   4.8698   4.9964   5.1266
     5.7302   5.7799   6.7697   6.8905   6.9077   7.2593   7.3832   7.7372
    15.7901  17.3786  18.8710  19.3048  19.3873  20.3798

          k = 0.2004-0.0000-0.4009 (  8538 PWs)   bands (ev):

   -64.1819 -64.1786 -64.1757 -64.1753 -31.0013 -30.9950 -30.9944 -30.9931
   -30.9810 -30.9774 -30.9633 -30.9624 -30.9620 -30.9552 -30.9528 -30.9452
    -8.4328  -7.9856  -7.5471  -7.4925   4.6650   4.8698   4.9964   5.1266
     5.7302   5.7799   6.7697   6.8905   6.9077   7.2593   7.3832   7.7372
    15.7901  17.3786  18.8710  19.0663  19.3048  19.3873

          k = 0.2004-0.0000-0.2004 (  8512 PWs)   bands (ev):

   -64.1846 -64.1760 -64.1759 -64.1750 -31.0061 -31.0061 -31.0054 -30.9822
   -30.9701 -30.9701 -30.9652 -30.9652 -30.9640 -30.9587 -30.9452 -30.9403
    -8.7951  -7.6286  -7.6282  -7.4870   4.3995   4.3996   4.4584   5.8117
     6.5602   6.5606   6.7845   6.8295   6.8296   6.9364   7.8152   8.0303
    14.4022  18.1211  18.2470  18.2470  18.5543  18.5543

          k = 0.2004 0.2004 0.0000 (  8512 PWs)   bands (ev):

   -64.1846 -64.1760 -64.1759 -64.1750 -31.0061 -31.0061 -31.0054 -30.9822
   -30.9701 -30.9701 -30.9652 -30.9652 -30.9640 -30.9587 -30.9452 -30.9403
    -8.7951  -7.6284  -7.6283  -7.4870   4.3996   4.3996   4.4584   5.8117
     6.5604   6.5605   6.7845   6.8295   6.8296   6.9364   7.8152   8.0303
    14.4022  18.1211  18.2470  18.2470  18.5543  18.5543

          k = 0.2004 0.2004 0.2004 (  8517 PWs)   bands (ev):

   -64.1837 -64.1760 -64.1759 -64.1759 -31.0066 -31.0066 -31.0066 -30.9737
   -30.9737 -30.9737 -30.9701 -30.9617 -30.9617 -30.9617 -30.9426 -30.9426
    -8.6655  -7.6038  -7.6036  -7.6034   4.4122   4.4122   4.4123   6.1778
     6.1780   6.1781   6.1821   7.0277   7.0278   7.0278   7.9104   7.9104
    14.7976  18.0874  18.0874  18.0874  19.3584  19.3585

          k = 0.2004 0.2004 0.4009 (  8510 PWs)   bands (ev):

   -64.1813 -64.1783 -64.1759 -64.1759 -31.0078 -31.0077 -31.0021 -30.9883
   -30.9762 -30.9762 -30.9592 -30.9592 -30.9585 -30.9558 -30.9484 -30.9465
    -8.3283  -7.9205  -7.5630  -7.5629   4.3998   4.3998   4.6073   5.2531
     5.9119   5.9120   6.9101   7.0234   7.0235   7.2784   7.5991   7.6142
    15.8767  17.2457  18.3698  18.3698  19.5658  20.1779

          k = 0.2004 0.2004-0.4009 (  8510 PWs)   bands (ev):

   -64.1813 -64.1783 -64.1759 -64.1759 -31.0078 -31.0077 -31.0021 -30.9883
   -30.9762 -30.9762 -30.9592 -30.9592 -30.9585 -30.9558 -30.9484 -30.9465
    -8.3283  -7.9205  -7.5630  -7.5629   4.3998   4.3998   4.6073   5.2531
     5.9119   5.9120   6.9101   7.0234   7.0235   7.2784   7.5991   7.6142
    15.8767  17.2457  18.3698  18.3698  19.5658  20.1779

          k = 0.2004 0.2004-0.2004 (  8517 PWs)   bands (ev):

   -64.1837 -64.1760 -64.1759 -64.1759 -31.0066 -31.0066 -31.0066 -30.9737
   -30.9737 -30.9737 -30.9701 -30.9617 -30.9617 -30.9617 -30.9426 -30.9426
    -8.6655  -7.6038  -7.6036  -7.6034   4.4122   4.4122   4.4123   6.1778
     6.1780   6.1781   6.1821   7.0277   7.0278   7.0278   7.9104   7.9104
    14.7976  18.0874  18.0874  18.0874  19.3584  19.3585

          k = 0.2004 0.4009 0.0000 (  8538 PWs)   bands (ev):

   -64.1819 -64.1786 -64.1757 -64.1753 -31.0013 -30.9950 -30.9944 -30.9931
   -30.9810 -30.9774 -30.9633 -30.9624 -30.9620 -30.9552 -30.9528 -30.9452
    -8.4328  -7.9856  -7.5471  -7.4925   4.6650   4.8698   4.9964   5.1266
     5.7302   5.7799   6.7697   6.8905   6.9077   7.2593   7.3832   7.7372
    15.7901  17.3786  18.8710  19.0663  19.3048  19.3873

          k = 0.2004 0.4009 0.2004 (  8510 PWs)   bands (ev):

   -64.1813 -64.1783 -64.1759 -64.1759 -31.0078 -31.0077 -31.0021 -30.9883
   -30.9762 -30.9762 -30.9592 -30.9592 -30.9585 -30.9558 -30.9484 -30.9465
    -8.3283  -7.9205  -7.5631  -7.5628   4.3997   4.3998   4.6073   5.2531
     5.9118   5.9121   6.9101   7.0234   7.0235   7.2784   7.5991   7.6142
    15.8767  17.2457  18.3698  18.3698  19.5658  20.1778

          k = 0.2004 0.4009 0.4009 (  8499 PWs)   bands (ev):

   -64.1796 -64.1776 -64.1776 -64.1767 -31.0141 -31.0119 -31.0119 -31.0041
   -30.9691 -30.9624 -30.9624 -30.9535 -30.9527 -30.9515 -30.9514 -30.9453
    -8.0660  -7.7707  -7.7707  -7.6324   4.1020   4.1970   4.1970   4.5414
     6.2609   6.6745   6.6745   7.2405   7.3249   7.3650   7.3650   7.6663
    16.3441  17.2896  17.2896  17.6596  20.2611  20.2611

          k = 0.2004 0.4009-0.4009 (  8499 PWs)   bands (ev):

   -64.1796 -64.1776 -64.1776 -64.1767 -31.0141 -31.0119 -31.0119 -31.0041
   -30.9691 -30.9624 -30.9624 -30.9535 -30.9527 -30.9515 -30.9514 -30.9453
    -8.0660  -7.7707  -7.7707  -7.6324   4.1020   4.1970   4.1970   4.5414
     6.2609   6.6745   6.6745   7.2405   7.3249   7.3650   7.3650   7.6663
    16.3441  17.2896  17.2896  17.6596  20.2612  20.5033

          k = 0.2004 0.4009-0.2004 (  8510 PWs)   bands (ev):

   -64.1813 -64.1783 -64.1759 -64.1759 -31.0078 -31.0077 -31.0021 -30.9883
   -30.9762 -30.9762 -30.9592 -30.9592 -30.9585 -30.9558 -30.9484 -30.9465
    -8.3283  -7.9205  -7.5631  -7.5628   4.3997   4.3998   4.6073   5.2531
     5.9118   5.9121   6.9101   7.0234   7.0235   7.2784   7.5991   7.6142
    15.8767  17.2457  18.3698  18.3698  19.5658  20.1778

          k = 0.2004-0.4009-0.0000 (  8538 PWs)   bands (ev):

   -64.1819 -64.1786 -64.1757 -64.1753 -31.0013 -30.9950 -30.9944 -30.9931
   -30.9810 -30.9774 -30.9633 -30.9624 -30.9620 -30.9552 -30.9528 -30.9452
    -8.4328  -7.9856  -7.5471  -7.4925   4.6650   4.8698   4.9964   5.1266
     5.7302   5.7799   6.7697   6.8905   6.9077   7.2593   7.3832   7.7372
    15.7901  17.3786  18.8710  19.0663  19.3048  19.3873

          k = 0.2004-0.4009 0.2004 (  8510 PWs)   bands (ev):

   -64.1813 -64.1783 -64.1759 -64.1759 -31.0078 -31.0077 -31.0021 -30.9883
   -30.9762 -30.9762 -30.9592 -30.9592 -30.9585 -30.9558 -30.9484 -30.9465
    -8.3283  -7.9205  -7.5631  -7.5628   4.3997   4.3998   4.6073   5.2531
     5.9118   5.9121   6.9101   7.0234   7.0235   7.2784   7.5991   7.6142
    15.8767  17.2457  18.3698  18.3698  19.5658  20.1778

          k = 0.2004-0.4009 0.4009 (  8499 PWs)   bands (ev):

   -64.1796 -64.1776 -64.1776 -64.1767 -31.0141 -31.0119 -31.0119 -31.0041
   -30.9691 -30.9624 -30.9624 -30.9535 -30.9527 -30.9515 -30.9514 -30.9453
    -8.0660  -7.7707  -7.7707  -7.6324   4.1020   4.1970   4.1970   4.5414
     6.2609   6.6745   6.6745   7.2405   7.3249   7.3650   7.3650   7.6663
    16.3441  17.2896  17.2896  17.6596  20.2611  20.2624

          k = 0.2004-0.4009-0.4009 (  8499 PWs)   bands (ev):

   -64.1796 -64.1776 -64.1776 -64.1767 -31.0141 -31.0119 -31.0119 -31.0041
   -30.9691 -30.9624 -30.9624 -30.9535 -30.9527 -30.9515 -30.9514 -30.9453
    -8.0660  -7.7707  -7.7707  -7.6324   4.1020   4.1970   4.1970   4.5414
     6.2609   6.6745   6.6745   7.2405   7.3249   7.3650   7.3650   7.6663
    16.3441  17.2896  17.2896  17.6596  20.2611  20.5022

          k = 0.2004-0.4009-0.2004 (  8510 PWs)   bands (ev):

   -64.1813 -64.1783 -64.1759 -64.1759 -31.0078 -31.0077 -31.0021 -30.9883
   -30.9762 -30.9762 -30.9592 -30.9592 -30.9585 -30.9558 -30.9484 -30.9465
    -8.3283  -7.9205  -7.5631  -7.5628   4.3997   4.3998   4.6073   5.2531
     5.9118   5.9121   6.9101   7.0234   7.0235   7.2784   7.5991   7.6142
    15.8767  17.2457  18.3698  18.3698  19.5658  20.1778

          k = 0.2004-0.2004-0.0000 (  8512 PWs)   bands (ev):

   -64.1846 -64.1760 -64.1759 -64.1750 -31.0061 -31.0061 -31.0054 -30.9822
   -30.9701 -30.9701 -30.9652 -30.9652 -30.9640 -30.9587 -30.9452 -30.9403
    -8.7951  -7.6284  -7.6283  -7.4870   4.3996   4.3996   4.4584   5.8117
     6.5604   6.5605   6.7845   6.8295   6.8296   6.9364   7.8152   8.0303
    14.4022  18.1211  18.2470  18.2470  18.5543  18.5543

          k = 0.2004-0.2004 0.2004 (  8517 PWs)   bands (ev):

   -64.1837 -64.1760 -64.1759 -64.1759 -31.0066 -31.0066 -31.0066 -30.9737
   -30.9737 -30.9737 -30.9701 -30.9617 -30.9617 -30.9617 -30.9426 -30.9426
    -8.6655  -7.6038  -7.6036  -7.6034   4.4122   4.4122   4.4123   6.1778
     6.1780   6.1781   6.1821   7.0277   7.0278   7.0278   7.9104   7.9104
    14.7976  18.0874  18.0874  18.0874  19.3584  19.3585

          k = 0.2004-0.2004 0.4009 (  8510 PWs)   bands (ev):

   -64.1813 -64.1783 -64.1759 -64.1759 -31.0078 -31.0077 -31.0021 -30.9883
   -30.9762 -30.9762 -30.9592 -30.9591 -30.9585 -30.9558 -30.9484 -30.9465
    -8.3283  -7.9205  -7.5630  -7.5629   4.3998   4.3998   4.6073   5.2531
     5.9119   5.9120   6.9101   7.0234   7.0235   7.2784   7.5991   7.6142
    15.8767  17.2457  18.3698  18.3698  19.5658  20.1779

          k = 0.2004-0.2004-0.4009 (  8510 PWs)   bands (ev):

   -64.1813 -64.1783 -64.1759 -64.1759 -31.0078 -31.0077 -31.0021 -30.9883
   -30.9762 -30.9762 -30.9592 -30.9592 -30.9585 -30.9558 -30.9484 -30.9465
    -8.3283  -7.9205  -7.5630  -7.5629   4.3998   4.3998   4.6073   5.2531
     5.9119   5.9120   6.9101   7.0234   7.0235   7.2784   7.5991   7.6142
    15.8767  17.2457  18.3698  18.3698  19.5658  20.1779

          k = 0.2004-0.2004-0.2004 (  8517 PWs)   bands (ev):

   -64.1837 -64.1760 -64.1759 -64.1759 -31.0066 -31.0066 -31.0066 -30.9737
   -30.9737 -30.9737 -30.9701 -30.9617 -30.9617 -30.9617 -30.9426 -30.9426
    -8.6655  -7.6038  -7.6036  -7.6034   4.4122   4.4122   4.4123   6.1778
     6.1780   6.1781   6.1821   7.0277   7.0278   7.0278   7.9104   7.9104
    14.7976  18.0873  18.0874  18.0874  19.3585  19.3585

          k = 0.4009-0.0000-0.0000 (  8542 PWs)   bands (ev):

   -64.1827 -64.1790 -64.1749 -64.1749 -30.9983 -30.9983 -30.9904 -30.9843
   -30.9843 -30.9707 -30.9706 -30.9674 -30.9586 -30.9586 -30.9495 -30.9495
    -8.5473  -8.0632  -7.4578  -7.4577   4.8202   4.8202   5.0060   5.6258
     5.6258   6.1330   6.4181   6.4181   7.2129   7.2129   7.6237   7.6237
    15.4569  17.1011  18.7038  19.2459  20.1072  20.1075

          k = 0.4009-0.0000 0.2004 (  8538 PWs)   bands (ev):

   -64.1819 -64.1786 -64.1757 -64.1753 -31.0013 -30.9950 -30.9944 -30.9931
   -30.9810 -30.9774 -30.9633 -30.9624 -30.9620 -30.9552 -30.9528 -30.9452
    -8.4328  -7.9856  -7.5471  -7.4925   4.6650   4.8698   4.9964   5.1266
     5.7302   5.7799   6.7697   6.8905   6.9077   7.2593   7.3832   7.7372
    15.7901  17.3786  18.8710  19.0663  19.3048  19.3873

          k = 0.4009-0.0000 0.4009 (  8510 PWs)   bands (ev):

   -64.1800 -64.1776 -64.1776 -64.1763 -31.0013 -31.0013 -31.0012 -30.9923
   -30.9845 -30.9722 -30.9722 -30.9615 -30.9536 -30.9516 -30.9516 -30.9445
    -8.1404  -7.7996  -7.7992  -7.6089   4.6456   4.6458   4.6781   5.0550
     5.4957   6.2118   6.2121   6.8167   7.2866   7.3442   7.3445   7.7086
    16.6854  17.9410  17.9410  18.4136  19.7524  19.7524

          k = 0.4009-0.0000-0.4009 (  8510 PWs)   bands (ev):

   -64.1800 -64.1776 -64.1776 -64.1763 -31.0013 -31.0013 -31.0012 -30.9923
   -30.9845 -30.9722 -30.9722 -30.9615 -30.9536 -30.9516 -30.9516 -30.9445
    -8.1404  -7.7996  -7.7992  -7.6089   4.6456   4.6458   4.6781   5.0550
     5.4957   6.2118   6.2121   6.8167   7.2866   7.3442   7.3445   7.7086
    16.6854  17.9410  17.9410  18.4136  19.7524  19.7527

          k = 0.4009-0.0000-0.2004 (  8538 PWs)   bands (ev):

   -64.1819 -64.1786 -64.1757 -64.1753 -31.0013 -30.9950 -30.9944 -30.9931
   -30.9810 -30.9774 -30.9633 -30.9624 -30.9620 -30.9552 -30.9528 -30.9452
    -8.4328  -7.9856  -7.5471  -7.4925   4.6650   4.8698   4.9964   5.1266
     5.7302   5.7799   6.7697   6.8905   6.9077   7.2593   7.3832   7.7372
    15.7901  17.3786  18.8710  19.0663  19.3048  19.3873

          k = 0.4009 0.2004 0.0000 (  8538 PWs)   bands (ev):

   -64.1819 -64.1786 -64.1757 -64.1753 -31.0013 -30.9950 -30.9944 -30.9931
   -30.9810 -30.9774 -30.9633 -30.9624 -30.9620 -30.9552 -30.9528 -30.9452
    -8.4328  -7.9856  -7.5471  -7.4925   4.6650   4.8698   4.9964   5.1266
     5.7302   5.7799   6.7697   6.8905   6.9077   7.2593   7.3832   7.7372
    15.7901  17.3786  18.8710  19.0663  19.3048  19.3873

          k = 0.4009 0.2004 0.2004 (  8510 PWs)   bands (ev):

   -64.1813 -64.1783 -64.1759 -64.1759 -31.0078 -31.0077 -31.0021 -30.9883
   -30.9762 -30.9762 -30.9592 -30.9592 -30.9585 -30.9558 -30.9484 -30.9465
    -8.3283  -7.9205  -7.5630  -7.5629   4.3998   4.3998   4.6073   5.2531
     5.9120   5.9120   6.9101   7.0235   7.0235   7.2784   7.5991   7.6142
    15.8767  17.2457  18.3698  18.3698  19.5658  20.1779

          k = 0.4009 0.2004 0.4009 (  8499 PWs)   bands (ev):

   -64.1796 -64.1776 -64.1776 -64.1767 -31.0141 -31.0119 -31.0119 -31.0041
   -30.9691 -30.9624 -30.9624 -30.9535 -30.9527 -30.9515 -30.9514 -30.9453
    -8.0660  -7.7709  -7.7705  -7.6324   4.1020   4.1969   4.1971   4.5414
     6.2609   6.6744   6.6746   7.2405   7.3249   7.3648   7.3651   7.6663
    16.3441  17.2896  17.2896  17.6596  20.2611  20.2625

          k = 0.4009 0.2004-0.4009 (  8499 PWs)   bands (ev):

   -64.1796 -64.1776 -64.1776 -64.1767 -31.0141 -31.0119 -31.0119 -31.0041
   -30.9691 -30.9624 -30.9624 -30.9535 -30.9527 -30.9515 -30.9514 -30.9453
    -8.0660  -7.7709  -7.7705  -7.6324   4.1020   4.1969   4.1971   4.5414
     6.2609   6.6744   6.6746   7.2405   7.3249   7.3648   7.3651   7.6663
    16.3441  17.2896  17.2896  17.6596  20.2611  20.5033

          k = 0.4009 0.2004-0.2004 (  8510 PWs)   bands (ev):

   -64.1813 -64.1783 -64.1759 -64.1759 -31.0078 -31.0077 -31.0021 -30.9883
   -30.9762 -30.9762 -30.9592 -30.9592 -30.9585 -30.9558 -30.9484 -30.9465
    -8.3283  -7.9205  -7.5630  -7.5629   4.3998   4.3998   4.6073   5.2531
     5.9120   5.9120   6.9101   7.0235   7.0235   7.2784   7.5991   7.6142
    15.8767  17.2457  18.3698  18.3698  19.5658  20.1779

          k = 0.4009 0.4009 0.0000 (  8510 PWs)   bands (ev):

   -64.1800 -64.1776 -64.1776 -64.1763 -31.0013 -31.0013 -31.0012 -30.9923
   -30.9845 -30.9722 -30.9722 -30.9615 -30.9536 -30.9516 -30.9516 -30.9445
    -8.1404  -7.7994  -7.7993  -7.6089   4.6457   4.6457   4.6781   5.0550
     5.4957   6.2119   6.2120   6.8167   7.2866   7.3443   7.3444   7.7086
    16.6854  17.9410  17.9410  18.4136  19.7524  20.2090

          k = 0.4009 0.4009 0.2004 (  8499 PWs)   bands (ev):

   -64.1796 -64.1776 -64.1776 -64.1767 -31.0141 -31.0119 -31.0119 -31.0041
   -30.9691 -30.9624 -30.9624 -30.9535 -30.9527 -30.9515 -30.9514 -30.9453
    -8.0660  -7.7708  -7.7707  -7.6324   4.1020   4.1970   4.1970   4.5414
     6.2609   6.6745   6.6746   7.2405   7.3249   7.3649   7.3650   7.6663
    16.3441  17.2896  17.2896  17.6596  20.2612  20.5031

          k = 0.4009 0.4009 0.4009 (  8465 PWs)   bands (ev):

   -64.1787 -64.1776 -64.1776 -64.1776 -31.0232 -31.0232 -31.0232 -31.0190
   -30.9532 -30.9532 -30.9532 -30.9504 -30.9504 -30.9503 -30.9476 -30.9476
    -7.8916  -7.7238  -7.7236  -7.7234   3.7023   3.7023   3.7023   3.8856
     7.1669   7.1670   7.1672   7.4270   7.4271   7.4272   7.5575   7.5575
    16.0802  16.5852  16.5852  16.5853  20.7137  20.7137

          k = 0.4009 0.4009-0.4009 (  8465 PWs)   bands (ev):

   -64.1787 -64.1776 -64.1776 -64.1776 -31.0232 -31.0232 -31.0232 -31.0190
   -30.9532 -30.9532 -30.9532 -30.9504 -30.9504 -30.9503 -30.9476 -30.9476
    -7.8916  -7.7238  -7.7236  -7.7234   3.7023   3.7023   3.7023   3.8856
     7.1669   7.1670   7.1672   7.4270   7.4271   7.4272   7.5575   7.5575
    16.0802  16.5852  16.5852  16.5853  20.7136  20.7137

          k = 0.4009 0.4009-0.2004 (  8499 PWs)   bands (ev):

   -64.1796 -64.1776 -64.1776 -64.1767 -31.0141 -31.0119 -31.0119 -31.0041
   -30.9691 -30.9624 -30.9624 -30.9535 -30.9527 -30.9515 -30.9514 -30.9453
    -8.0660  -7.7708  -7.7707  -7.6324   4.1020   4.1970   4.1970   4.5414
     6.2609   6.6745   6.6746   7.2405   7.3249   7.3649   7.3650   7.6663
    16.3441  17.2896  17.2896  17.6596  20.2611  20.5033

          k = 0.4009-0.4009-0.0000 (  8510 PWs)   bands (ev):

   -64.1800 -64.1776 -64.1776 -64.1763 -31.0013 -31.0013 -31.0012 -30.9923
   -30.9845 -30.9722 -30.9722 -30.9615 -30.9536 -30.9516 -30.9516 -30.9445
    -8.1404  -7.7994  -7.7993  -7.6089   4.6457   4.6457   4.6781   5.0550
     5.4957   6.2119   6.2120   6.8167   7.2866   7.3443   7.3444   7.7086
    16.6854  17.9410  17.9410  18.4136  19.7524  20.2097

          k = 0.4009-0.4009 0.2004 (  8499 PWs)   bands (ev):

   -64.1796 -64.1776 -64.1776 -64.1767 -31.0141 -31.0119 -31.0119 -31.0041
   -30.9691 -30.9624 -30.9624 -30.9535 -30.9527 -30.9515 -30.9514 -30.9453
    -8.0660  -7.7708  -7.7707  -7.6324   4.1020   4.1970   4.1970   4.5414
     6.2609   6.6745   6.6746   7.2405   7.3249   7.3649   7.3650   7.6663
    16.3441  17.2896  17.2896  17.6596  20.2613  20.5033

          k = 0.4009-0.4009 0.4009 (  8465 PWs)   bands (ev):

   -64.1787 -64.1776 -64.1776 -64.1776 -31.0232 -31.0232 -31.0232 -31.0190
   -30.9532 -30.9532 -30.9532 -30.9504 -30.9504 -30.9503 -30.9476 -30.9476
    -7.8916  -7.7238  -7.7236  -7.7234   3.7023   3.7023   3.7023   3.8856
     7.1669   7.1670   7.1672   7.4270   7.4271   7.4272   7.5575   7.5575
    16.0802  16.5852  16.5852  16.5853  20.7137  20.7137

          k = 0.4009-0.4009-0.4009 (  8465 PWs)   bands (ev):

   -64.1787 -64.1776 -64.1776 -64.1776 -31.0232 -31.0232 -31.0232 -31.0190
   -30.9532 -30.9532 -30.9532 -30.9504 -30.9504 -30.9503 -30.9476 -30.9476
    -7.8916  -7.7238  -7.7236  -7.7234   3.7023   3.7023   3.7023   3.8856
     7.1669   7.1670   7.1672   7.4270   7.4271   7.4272   7.5575   7.5575
    16.0802  16.5852  16.5852  16.5853  20.7137  20.7137

          k = 0.4009-0.4009-0.2004 (  8499 PWs)   bands (ev):

   -64.1796 -64.1776 -64.1776 -64.1767 -31.0141 -31.0119 -31.0119 -31.0041
   -30.9691 -30.9624 -30.9624 -30.9535 -30.9527 -30.9515 -30.9514 -30.9453
    -8.0660  -7.7708  -7.7707  -7.6324   4.1020   4.1970   4.1970   4.5414
     6.2609   6.6745   6.6746   7.2405   7.3249   7.3649   7.3650   7.6663
    16.3441  17.2896  17.2896  17.6596  20.2611  20.5029

          k = 0.4009-0.2004-0.0000 (  8538 PWs)   bands (ev):

   -64.1819 -64.1786 -64.1757 -64.1753 -31.0013 -30.9950 -30.9944 -30.9931
   -30.9810 -30.9774 -30.9633 -30.9624 -30.9620 -30.9552 -30.9528 -30.9452
    -8.4328  -7.9856  -7.5471  -7.4925   4.6650   4.8698   4.9964   5.1266
     5.7302   5.7799   6.7697   6.8905   6.9077   7.2593   7.3832   7.7372
    15.7901  17.3786  18.8710  19.0663  19.3048  19.3873

          k = 0.4009-0.2004 0.2004 (  8510 PWs)   bands (ev):

   -64.1813 -64.1783 -64.1759 -64.1759 -31.0078 -31.0077 -31.0021 -30.9883
   -30.9762 -30.9762 -30.9592 -30.9592 -30.9585 -30.9558 -30.9484 -30.9465
    -8.3283  -7.9205  -7.5630  -7.5629   4.3998   4.3998   4.6073   5.2531
     5.9120   5.9120   6.9101   7.0235   7.0235   7.2784   7.5991   7.6142
    15.8767  17.2457  18.3698  18.3698  19.5658  20.1779

          k = 0.4009-0.2004 0.4009 (  8499 PWs)   bands (ev):

   -64.1796 -64.1776 -64.1776 -64.1767 -31.0141 -31.0119 -31.0119 -31.0041
   -30.9691 -30.9624 -30.9624 -30.9535 -30.9527 -30.9515 -30.9514 -30.9453
    -8.0660  -7.7709  -7.7705  -7.6324   4.1020   4.1969   4.1971   4.5414
     6.2609   6.6744   6.6746   7.2405   7.3249   7.3648   7.3651   7.6663
    16.3441  17.2896  17.2896  17.6596  20.2611  20.5034

          k = 0.4009-0.2004-0.4009 (  8499 PWs)   bands (ev):

   -64.1796 -64.1776 -64.1776 -64.1767 -31.0141 -31.0119 -31.0119 -31.0041
   -30.9691 -30.9624 -30.9624 -30.9535 -30.9527 -30.9515 -30.9514 -30.9453
    -8.0660  -7.7709  -7.7705  -7.6324   4.1020   4.1969   4.1971   4.5414
     6.2609   6.6744   6.6746   7.2405   7.3249   7.3648   7.3651   7.6663
    16.3441  17.2896  17.2896  17.6596  20.2611  20.2622

          k = 0.4009-0.2004-0.2004 (  8510 PWs)   bands (ev):

   -64.1813 -64.1783 -64.1759 -64.1759 -31.0078 -31.0077 -31.0021 -30.9883
   -30.9762 -30.9762 -30.9592 -30.9592 -30.9585 -30.9558 -30.9484 -30.9465
    -8.3283  -7.9205  -7.5630  -7.5629   4.3998   4.3998   4.6073   5.2531
     5.9120   5.9120   6.9101   7.0235   7.0235   7.2784   7.5991   7.6142
    15.8767  17.2457  18.3698  18.3698  19.5658  20.1779

     the Fermi energy is    10.2032 ev

!    total energy              =    -608.51594005 Ry
     estimated scf accuracy    <       0.00000080 Ry
     smearing contrib. (-TS)   =      -0.00000000 Ry
     internal energy E=F+TS    =    -608.51594005 Ry

     The total energy is F=E-TS. E is the sum of the following terms:
     one-electron contribution =    -295.98910592 Ry
     hartree contribution      =     165.59570108 Ry
     xc contribution           =     -98.01417173 Ry
     ewald contribution        =    -379.99951189 Ry
     DFT-D3 Dispersion         =      -0.10885159 Ry

     convergence has been achieved in   5 iterations

     Forces acting on atoms (cartesian axes, Ry/au):

     atom    1 type  1   force =     0.00000118    0.00000025    0.00000044
     atom    2 type  1   force =     0.00000154    0.00000204   -0.00000074
     atom    3 type  1   force =     0.00000090   -0.00000031    0.00000007
     atom    4 type  1   force =     0.00000022   -0.00000071   -0.00000013
     atom    5 type  2   force =    -0.00000049   -0.00000109    0.00000085
     atom    6 type  2   force =     0.00000034    0.00000055   -0.00000245
     atom    7 type  2   force =    -0.00000393    0.00000191    0.00000308
     atom    8 type  2   force =     0.00000025   -0.00000264   -0.00000112

     Total force =     0.000007     Total SCF correction =     0.000016
     SCF correction compared to forces is large: reduce conv_thr to get better values


     Computing stress (Cartesian axis) and pressure

          total   stress  (Ry/bohr**3)                   (kbar)     P=       21.64
   0.00014709  -0.00000000  -0.00000000           21.64       -0.00       -0.00
  -0.00000000   0.00014706   0.00000001           -0.00       21.63        0.00
  -0.00000000   0.00000001   0.00014708           -0.00        0.00       21.64


     number of scf cycles    =   2
     number of bfgs steps    =   1

     enthalpy old            =    -608.4306930682 Ry
     enthalpy new            =    -608.4308671179 Ry

     CASE: enthalpy_new < enthalpy_old

     new trust radius        =       0.0034444085 bohr
     new conv_thr            =       0.0000000100 Ry

     new unit-cell volume =    499.43206 a.u.^3 (    74.00820 Ang^3 )
     density =      3.61724 g/cm^3

CELL_PARAMETERS (angstrom)
   4.198492803  -0.000000246  -0.000000435
  -0.000000246   4.198489358   0.000001071
  -0.000000435   0.000001071   4.198492167

ATOMIC_POSITIONS (angstrom)
Mg            0.0000009368        0.0000005136        0.0000001800
Mg            0.0000007829        2.0992469369        2.0992460843
Mg            2.0992467526        0.0000001947        2.0992458167
Mg            2.0992463946        2.0992434612        0.0000004959
O             2.0992456052        2.0992443543        2.0992467242
O             2.0992466885        0.0000006526       -0.0000018720
O            -0.0000029766        2.0992457927        0.0000027507
O             0.0000000588       -0.0000015398        2.0992454269


     NEW-OLD atomic charge density approx. for the potential
     extrapolated charge   63.85208, renormalised to   64.00000

     total cpu time spent up to now is       97.6 secs

     Self-consistent Calculation

     iteration #  1     ecut=   100.00 Ry     beta= 0.50
     Davidson diagonalization with overlap
     ethr =  1.00E-06,  avg # of iterations =  2.0

     total cpu time spent up to now is      106.7 secs

     total energy              =    -608.51501188 Ry
     estimated scf accuracy    <       0.00045656 Ry

     iteration #  2     ecut=   100.00 Ry     beta= 0.50
     Davidson diagonalization with overlap
     ethr =  7.13E-07,  avg # of iterations =  3.3

     total cpu time spent up to now is      113.1 secs

     total energy              =    -608.51575953 Ry
     estimated scf accuracy    <       0.00058409 Ry

     iteration #  3     ecut=   100.00 Ry     beta= 0.50
     Davidson diagonalization with overlap
     ethr =  7.13E-07,  avg # of iterations =  2.3

     total cpu time spent up to now is      117.6 secs

     total energy              =    -608.51575877 Ry
     estimated scf accuracy    <       0.00012658 Ry

     iteration #  4     ecut=   100.00 Ry     beta= 0.50
     Davidson diagonalization with overlap
     ethr =  1.98E-07,  avg # of iterations =  1.1

     total cpu time spent up to now is      121.7 secs

     total energy              =    -608.51574389 Ry
     estimated scf accuracy    <       0.00004377 Ry

     iteration #  5     ecut=   100.00 Ry     beta= 0.50
     Davidson diagonalization with overlap
     ethr =  6.84E-08,  avg # of iterations =  2.0

     total cpu time spent up to now is      126.1 secs

     total energy              =    -608.51574623 Ry
     estimated scf accuracy    <       0.00000368 Ry

     iteration #  6     ecut=   100.00 Ry     beta= 0.50
     Davidson diagonalization with overlap
     ethr =  5.74E-09,  avg # of iterations =  2.1

     total cpu time spent up to now is      131.2 secs

     total energy              =    -608.51574696 Ry
     estimated scf accuracy    <       0.00000005 Ry

     iteration #  7     ecut=   100.00 Ry     beta= 0.50
     Davidson diagonalization with overlap
     ethr =  7.25E-11,  avg # of iterations =  2.0

     total cpu time spent up to now is      136.6 secs

     total energy              =    -608.51574688 Ry
     estimated scf accuracy    <       0.00000021 Ry

     iteration #  8     ecut=   100.00 Ry     beta= 0.50
     Davidson diagonalization with overlap
     ethr =  7.25E-11,  avg # of iterations =  2.2

     total cpu time spent up to now is      142.0 secs

     total energy              =    -608.51574687 Ry
     estimated scf accuracy    <       0.00000005 Ry

     iteration #  9     ecut=   100.00 Ry     beta= 0.50
     Davidson diagonalization with overlap
     ethr =  7.06E-11,  avg # of iterations =  2.0

     total cpu time spent up to now is      147.3 secs

     End of self-consistent calculation

          k = 0.0000 0.0000 0.0000 (  8409 PWs)   bands (ev):

   -64.1485 -64.1365 -64.1365 -64.1365 -30.9770 -30.9770 -30.9770 -30.9314
   -30.9314 -30.9314 -30.9314 -30.9314 -30.9314 -30.9018 -30.9018 -30.9018
    -9.0631  -7.4942  -7.4942  -7.4942   4.0961   4.0961   4.0961   6.8264
     6.8264   6.8264   6.8264   6.8264   6.8264   8.1733   8.1733   8.1733
    13.0363  17.4135  17.4135  18.2921  18.2921  18.2921

          k = 0.0000-0.0000 0.2006 (  8501 PWs)   bands (ev):

   -64.1474 -64.1377 -64.1365 -64.1365 -30.9726 -30.9726 -30.9707 -30.9357
   -30.9357 -30.9321 -30.9321 -30.9286 -30.9286 -30.9099 -30.9046 -30.9046
    -8.9168  -7.6462  -7.4718  -7.4718   4.2887   4.2887   4.3258   6.4583
     6.4583   6.6750   6.6751   6.9356   6.9356   7.4616   8.0207   8.0207
    13.8589  17.7456  18.0007  18.0007  18.1461  18.8786

          k = 0.0000-0.0000 0.4012 (  8542 PWs)   bands (ev):

   -64.1444 -64.1407 -64.1365 -64.1365 -30.9612 -30.9612 -30.9533 -30.9471
   -30.9471 -30.9333 -30.9333 -30.9301 -30.9211 -30.9211 -30.9120 -30.9120
    -8.5295  -8.0433  -7.4352  -7.4352   4.8399   4.8399   5.0275   5.6470
     5.6470   6.1575   6.4414   6.4414   7.2378   7.2378   7.6495   7.6495
    15.5080  17.1535  18.7371  19.2861  19.2861  20.1637

          k = 0.0000 0.2006-0.0000 (  8501 PWs)   bands (ev):

   -64.1474 -64.1377 -64.1365 -64.1365 -30.9726 -30.9726 -30.9707 -30.9357
   -30.9357 -30.9321 -30.9321 -30.9286 -30.9286 -30.9099 -30.9046 -30.9046
    -8.9168  -7.6462  -7.4718  -7.4718   4.2887   4.2887   4.3258   6.4583
     6.4583   6.6750   6.6750   6.9356   6.9356   7.4616   8.0207   8.0207
    13.8589  17.7456  18.0007  18.0007  18.1461  18.8786

          k = 0.0000 0.2006 0.2006 (  8512 PWs)   bands (ev):

   -64.1463 -64.1375 -64.1375 -64.1366 -30.9691 -30.9691 -30.9684 -30.9449
   -30.9327 -30.9327 -30.9278 -30.9278 -30.9266 -30.9212 -30.9076 -30.9027
    -8.7783  -7.6066  -7.6066  -7.4646   4.4189   4.4189   4.4774   5.8336
     6.5838   6.5838   6.8104   6.8536   6.8536   6.9605   7.8414   8.0568
    14.4526  18.1589  18.2814  18.2814  18.6081  18.6081

          k = 0.0000 0.2006 0.4012 (  8538 PWs)   bands (ev):

   -64.1436 -64.1403 -64.1373 -64.1369 -30.9643 -30.9579 -30.9573 -30.9560
   -30.9437 -30.9402 -30.9259 -30.9249 -30.9246 -30.9177 -30.9153 -30.9076
[...]
   -30.9436 -30.9368 -30.9368 -30.9278 -30.9270 -30.9258 -30.9258 -30.9196
    -8.0528  -7.7567  -7.7567  -7.6179   4.1143   4.2097   4.2097   4.5550
     6.2757   6.6899   6.6899   7.2567   7.3410   7.3812   7.3812   7.6829
    16.3758  17.3203  17.3203  17.6894  20.2931  20.5361

          k = 0.2005 0.4011-0.4011 (  8420 PWs)   bands (ev):

   -64.1532 -64.1512 -64.1512 -64.1503 -30.9889 -30.9866 -30.9866 -30.9788
   -30.9436 -30.9368 -30.9368 -30.9278 -30.9270 -30.9258 -30.9258 -30.9196
    -8.0528  -7.7567  -7.7567  -7.6179   4.1143   4.2097   4.2097   4.5550
     6.2757   6.6899   6.6899   7.2567   7.3410   7.3812   7.3812   7.6829
    16.3758  17.3203  17.3203  17.6894  20.2931  20.2931

          k = 0.2005 0.4011-0.2005 (  8466 PWs)   bands (ev):

   -64.1549 -64.1519 -64.1495 -64.1495 -30.9825 -30.9825 -30.9768 -30.9629
   -30.9507 -30.9507 -30.9336 -30.9336 -30.9329 -30.9302 -30.9228 -30.9208
    -8.3160  -7.9070  -7.5484  -7.5483   4.4124   4.4124   4.6208   5.2680
     5.9263   5.9263   6.9258   7.0393   7.0393   7.2947   7.6157   7.6310
    15.9098  17.2782  18.3993  18.3993  19.5935  20.2106

          k = 0.2005-0.4011 0.0000 (  8425 PWs)   bands (ev):

   -64.1556 -64.1522 -64.1492 -64.1489 -30.9760 -30.9697 -30.9691 -30.9677
   -30.9555 -30.9520 -30.9378 -30.9368 -30.9364 -30.9296 -30.9272 -30.9195
    -8.4208  -7.9723  -7.5325  -7.4777   4.6780   4.8838   5.0095   5.1402
     5.7458   5.7941   6.7853   6.9062   6.9236   7.2756   7.3998   7.7541
    15.8242  17.4135  18.8993  19.0902  19.3386  19.4144

          k = 0.2005-0.4011 0.2005 (  8466 PWs)   bands (ev):

   -64.1549 -64.1519 -64.1495 -64.1495 -30.9825 -30.9825 -30.9768 -30.9629
   -30.9507 -30.9507 -30.9336 -30.9336 -30.9329 -30.9302 -30.9228 -30.9208
    -8.3160  -7.9070  -7.5484  -7.5483   4.4124   4.4124   4.6208   5.2680
     5.9263   5.9263   6.9258   7.0393   7.0393   7.2947   7.6157   7.6309
    15.9098  17.2782  18.3993  18.3993  19.5935  20.2106

          k = 0.2005-0.4011 0.4011 (  8420 PWs)   bands (ev):

   -64.1532 -64.1512 -64.1512 -64.1503 -30.9889 -30.9866 -30.9866 -30.9788
   -30.9436 -30.9368 -30.9368 -30.9278 -30.9270 -30.9258 -30.9258 -30.9196
    -8.0528  -7.7567  -7.7567  -7.6179   4.1143   4.2097   4.2097   4.5550
     6.2757   6.6899   6.6899   7.2567   7.3410   7.3812   7.3812   7.6829
    16.3758  17.3203  17.3203  17.6894  20.2931  20.5369

          k = 0.2005-0.4011-0.4011 (  8420 PWs)   bands (ev):

   -64.1532 -64.1512 -64.1512 -64.1503 -30.9889 -30.9866 -30.9866 -30.9788
   -30.9436 -30.9368 -30.9368 -30.9278 -30.9270 -30.9258 -30.9258 -30.9196
    -8.0528  -7.7567  -7.7567  -7.6179   4.1143   4.2097   4.2097   4.5550
     6.2757   6.6899   6.6899   7.2567   7.3410   7.3812   7.3812   7.6829
    16.3758  17.3203  17.3203  17.6894  20.2931  20.2931

          k = 0.2005-0.4011-0.2005 (  8466 PWs)   bands (ev):

   -64.1549 -64.1519 -64.1495 -64.1495 -30.9825 -30.9825 -30.9768 -30.9629
   -30.9507 -30.9507 -30.9336 -30.9336 -30.9329 -30.9302 -30.9228 -30.9208
    -8.3160  -7.9070  -7.5484  -7.5483   4.4124   4.4124   4.6208   5.2680
     5.9263   5.9263   6.9258   7.0393   7.0393   7.2947   7.6157   7.6310
    15.9098  17.2782  18.3993  18.3993  19.5935  20.2106

          k = 0.2005-0.2005 0.0000 (  8458 PWs)   bands (ev):

   -64.1583 -64.1495 -64.1495 -64.1486 -30.9808 -30.9808 -30.9801 -30.9567
   -30.9446 -30.9446 -30.9397 -30.9397 -30.9385 -30.9331 -30.9195 -30.9146
    -8.7841  -7.6141  -7.6141  -7.4723   4.4123   4.4123   4.4709   5.8261
     6.5758   6.5758   6.8016   6.8454   6.8454   6.9523   7.8325   8.0478
    14.4359  18.1464  18.2699  18.2699  18.5904  18.5904

          k = 0.2005-0.2005 0.2005 (  8439 PWs)   bands (ev):

   -64.1574 -64.1495 -64.1495 -64.1495 -30.9813 -30.9813 -30.9813 -30.9482
   -30.9482 -30.9482 -30.9445 -30.9362 -30.9362 -30.9362 -30.9168 -30.9168
    -8.6541  -7.5892  -7.5892  -7.5892   4.4249   4.4249   4.4249   6.1928
     6.1928   6.1928   6.1984   7.0438   7.0438   7.0438   7.9277   7.9277
    14.8310  18.1152  18.1152  18.1152  19.3913  19.3913

          k = 0.2005-0.2005 0.4011 (  8466 PWs)   bands (ev):

   -64.1549 -64.1519 -64.1495 -64.1495 -30.9825 -30.9825 -30.9768 -30.9629
   -30.9507 -30.9507 -30.9336 -30.9336 -30.9329 -30.9302 -30.9228 -30.9208
    -8.3160  -7.9070  -7.5484  -7.5483   4.4124   4.4124   4.6208   5.2680
     5.9263   5.9263   6.9258   7.0393   7.0393   7.2947   7.6157   7.6310
    15.9098  17.2782  18.3993  18.3993  19.5935  20.2106

          k = 0.2005-0.2005-0.4011 (  8466 PWs)   bands (ev):

   -64.1549 -64.1519 -64.1495 -64.1495 -30.9825 -30.9825 -30.9768 -30.9629
   -30.9507 -30.9507 -30.9336 -30.9336 -30.9329 -30.9302 -30.9228 -30.9208
    -8.3160  -7.9070  -7.5484  -7.5483   4.4124   4.4124   4.6208   5.2680
     5.9263   5.9263   6.9258   7.0393   7.0393   7.2947   7.6157   7.6310
    15.9098  17.2782  18.3993  18.3993  19.5935  20.2106

          k = 0.2005-0.2005-0.2005 (  8439 PWs)   bands (ev):

   -64.1574 -64.1495 -64.1495 -64.1495 -30.9813 -30.9813 -30.9813 -30.9482
   -30.9482 -30.9482 -30.9445 -30.9362 -30.9362 -30.9362 -30.9168 -30.9168
    -8.6541  -7.5892  -7.5892  -7.5892   4.4249   4.4249   4.4249   6.1928
     6.1928   6.1928   6.1984   7.0438   7.0438   7.0438   7.9277   7.9277
    14.8310  18.1152  18.1152  18.1152  19.3913  19.3913

          k = 0.4011 0.0000 0.0000 (  8450 PWs)   bands (ev):

   -64.1563 -64.1526 -64.1485 -64.1485 -30.9729 -30.9729 -30.9650 -30.9589
   -30.9589 -30.9451 -30.9451 -30.9419 -30.9330 -30.9330 -30.9239 -30.9239
    -8.5356  -8.0502  -7.4429  -7.4429   4.8332   4.8332   5.0201   5.6398
     5.6398   6.1492   6.4334   6.4334   7.2293   7.2293   7.6407   7.6407
    15.4910  17.1362  18.7260  19.2727  19.2727  20.4450

          k = 0.4011-0.0000 0.2005 (  8425 PWs)   bands (ev):

   -64.1556 -64.1522 -64.1492 -64.1489 -30.9760 -30.9697 -30.9691 -30.9677
   -30.9555 -30.9520 -30.9378 -30.9368 -30.9364 -30.9296 -30.9272 -30.9195
    -8.4208  -7.9723  -7.5325  -7.4777   4.6780   4.8838   5.0095   5.1402
     5.7458   5.7941   6.7853   6.9062   6.9236   7.2756   7.3998   7.7541
    15.8242  17.4135  18.8993  19.0902  19.3386  19.4144

          k = 0.4011-0.0000 0.4011 (  8432 PWs)   bands (ev):

   -64.1536 -64.1512 -64.1512 -64.1499 -30.9760 -30.9760 -30.9758 -30.9670
   -30.9590 -30.9467 -30.9467 -30.9359 -30.9279 -30.9259 -30.9259 -30.9188
    -8.1275  -7.7855  -7.7855  -7.5945   4.6592   4.6592   4.6913   5.0695
     5.5095   6.2266   6.2267   6.8323   7.3027   7.3605   7.3605   7.7253
    16.7191  17.9745  17.9745  18.4444  19.7798  20.2396

          k = 0.4011 0.0000-0.4011 (  8432 PWs)   bands (ev):

   -64.1536 -64.1512 -64.1512 -64.1499 -30.9760 -30.9760 -30.9758 -30.9670
   -30.9590 -30.9467 -30.9467 -30.9359 -30.9279 -30.9259 -30.9259 -30.9188
    -8.1275  -7.7855  -7.7855  -7.5945   4.6592   4.6592   4.6913   5.0695
     5.5095   6.2266   6.2267   6.8323   7.3027   7.3605   7.3605   7.7253
    16.7191  17.9745  17.9745  18.4444  19.7798  19.7799

          k = 0.4011 0.0000-0.2005 (  8425 PWs)   bands (ev):

   -64.1556 -64.1522 -64.1492 -64.1489 -30.9760 -30.9697 -30.9691 -30.9677
   -30.9555 -30.9520 -30.9378 -30.9368 -30.9364 -30.9296 -30.9272 -30.9195
    -8.4208  -7.9723  -7.5325  -7.4777   4.6780   4.8838   5.0095   5.1402
     5.7458   5.7941   6.7853   6.9062   6.9236   7.2756   7.3998   7.7541
    15.8242  17.4135  18.8993  19.0902  19.3386  19.4144

          k = 0.4011 0.2005-0.0000 (  8425 PWs)   bands (ev):

   -64.1556 -64.1522 -64.1492 -64.1489 -30.9760 -30.9697 -30.9691 -30.9677
   -30.9555 -30.9520 -30.9378 -30.9368 -30.9364 -30.9296 -30.9272 -30.9195
    -8.4208  -7.9723  -7.5325  -7.4777   4.6780   4.8838   5.0095   5.1402
     5.7458   5.7941   6.7853   6.9062   6.9236   7.2756   7.3998   7.7541
    15.8242  17.4135  18.8993  19.0902  19.3386  19.4144

          k = 0.4011 0.2005 0.2005 (  8466 PWs)   bands (ev):

   -64.1549 -64.1519 -64.1495 -64.1495 -30.9825 -30.9825 -30.9768 -30.9629
   -30.9507 -30.9507 -30.9336 -30.9336 -30.9329 -30.9302 -30.9228 -30.9208
    -8.3160  -7.9070  -7.5484  -7.5483   4.4124   4.4124   4.6208   5.2680
     5.9263   5.9263   6.9258   7.0393   7.0393   7.2947   7.6157   7.6310
    15.9098  17.2782  18.3993  18.3993  19.5935  20.2106

          k = 0.4011 0.2005 0.4011 (  8420 PWs)   bands (ev):

   -64.1532 -64.1512 -64.1512 -64.1503 -30.9889 -30.9866 -30.9866 -30.9788
   -30.9436 -30.9368 -30.9368 -30.9278 -30.9270 -30.9258 -30.9258 -30.9196
    -8.0528  -7.7567  -7.7567  -7.6179   4.1143   4.2097   4.2097   4.5550
     6.2757   6.6899   6.6899   7.2567   7.3410   7.3812   7.3812   7.6829
    16.3758  17.3203  17.3203  17.6894  20.2931  20.5369

          k = 0.4011 0.2005-0.4011 (  8420 PWs)   bands (ev):

   -64.1532 -64.1512 -64.1512 -64.1503 -30.9889 -30.9866 -30.9866 -30.9788
   -30.9436 -30.9368 -30.9368 -30.9278 -30.9270 -30.9258 -30.9258 -30.9196
    -8.0528  -7.7567  -7.7567  -7.6179   4.1143   4.2097   4.2097   4.5550
     6.2757   6.6899   6.6899   7.2567   7.3410   7.3812   7.3812   7.6829
    16.3758  17.3203  17.3203  17.6894  20.2931  20.2931

          k = 0.4011 0.2005-0.2005 (  8466 PWs)   bands (ev):

   -64.1549 -64.1519 -64.1495 -64.1495 -30.9825 -30.9825 -30.9768 -30.9629
   -30.9507 -30.9507 -30.9336 -30.9336 -30.9329 -30.9302 -30.9228 -30.9208
    -8.3160  -7.9070  -7.5484  -7.5483   4.4124   4.4124   4.6208   5.2680
     5.9263   5.9263   6.9258   7.0393   7.0393   7.2947   7.6157   7.6309
    15.9098  17.2782  18.3993  18.3993  19.5935  20.2106

          k = 0.4011 0.4011-0.0000 (  8432 PWs)   bands (ev):

   -64.1536 -64.1512 -64.1512 -64.1499 -30.9760 -30.9760 -30.9758 -30.9670
   -30.9590 -30.9467 -30.9467 -30.9359 -30.9279 -30.9259 -30.9259 -30.9188
    -8.1275  -7.7855  -7.7855  -7.5945   4.6592   4.6592   4.6913   5.0695
     5.5095   6.2266   6.2267   6.8323   7.3027   7.3605   7.3605   7.7253
    16.7191  17.9745  17.9745  18.4444  19.7798  19.7799

          k = 0.4011 0.4011 0.2005 (  8420 PWs)   bands (ev):

   -64.1532 -64.1512 -64.1512 -64.1503 -30.9889 -30.9866 -30.9866 -30.9788
   -30.9436 -30.9368 -30.9368 -30.9278 -30.9270 -30.9258 -30.9258 -30.9196
    -8.0528  -7.7567  -7.7567  -7.6179   4.1143   4.2097   4.2097   4.5550
     6.2757   6.6899   6.6899   7.2567   7.3410   7.3812   7.3812   7.6829
    16.3758  17.3203  17.3203  17.6894  20.2931  20.5368

          k = 0.4011 0.4011 0.4011 (  8423 PWs)   bands (ev):

   -64.1523 -64.1512 -64.1512 -64.1512 -30.9981 -30.9981 -30.9981 -30.9938
   -30.9275 -30.9275 -30.9275 -30.9247 -30.9247 -30.9247 -30.9219 -30.9219
    -7.8778  -7.7094  -7.7093  -7.7093   3.7141   3.7141   3.7141   3.8979
     7.1829   7.1829   7.1829   7.4433   7.4433   7.4433   7.5739   7.5739
    16.1099  16.6144  16.6144  16.6144  20.7490  20.7490

          k = 0.4011 0.4011-0.4011 (  8423 PWs)   bands (ev):

   -64.1523 -64.1512 -64.1512 -64.1512 -30.9981 -30.9981 -30.9981 -30.9938
   -30.9275 -30.9275 -30.9275 -30.9247 -30.9247 -30.9247 -30.9219 -30.9219
    -7.8778  -7.7094  -7.7093  -7.7093   3.7141   3.7141   3.7141   3.8979
     7.1829   7.1829   7.1829   7.4433   7.4433   7.4433   7.5739   7.5739
    16.1099  16.6144  16.6144  16.6144  20.7490  20.7490

          k = 0.4011 0.4011-0.2005 (  8420 PWs)   bands (ev):

   -64.1532 -64.1512 -64.1512 -64.1503 -30.9889 -30.9866 -30.9866 -30.9788
   -30.9436 -30.9368 -30.9368 -30.9278 -30.9270 -30.9258 -30.9258 -30.9196
    -8.0528  -7.7567  -7.7567  -7.6179   4.1143   4.2097   4.2097   4.5550
     6.2757   6.6899   6.6899   7.2567   7.3410   7.3812   7.3812   7.6829
    16.3758  17.3203  17.3203  17.6894  20.2931  20.5356

          k = 0.4011-0.4011 0.0000 (  8432 PWs)   bands (ev):

   -64.1536 -64.1512 -64.1512 -64.1499 -30.9760 -30.9760 -30.9758 -30.9670
   -30.9590 -30.9467 -30.9467 -30.9359 -30.9279 -30.9259 -30.9259 -30.9188
    -8.1275  -7.7855  -7.7855  -7.5945   4.6592   4.6592   4.6913   5.0695
     5.5095   6.2266   6.2267   6.8323   7.3027   7.3605   7.3605   7.7253
    16.7191  17.9745  17.9745  18.4444  19.7798  20.2398

          k = 0.4011-0.4011 0.2005 (  8420 PWs)   bands (ev):

   -64.1532 -64.1512 -64.1512 -64.1503 -30.9889 -30.9866 -30.9866 -30.9788
   -30.9436 -30.9368 -30.9368 -30.9278 -30.9270 -30.9258 -30.9258 -30.9196
    -8.0528  -7.7567  -7.7567  -7.6179   4.1143   4.2097   4.2097   4.5550
     6.2757   6.6899   6.6899   7.2567   7.3410   7.3812   7.3812   7.6829
    16.3758  17.3203  17.3203  17.6894  20.2931  20.5355

          k = 0.4011-0.4011 0.4011 (  8423 PWs)   bands (ev):

   -64.1523 -64.1512 -64.1512 -64.1512 -30.9981 -30.9981 -30.9981 -30.9938
   -30.9275 -30.9275 -30.9275 -30.9247 -30.9247 -30.9247 -30.9219 -30.9219
    -7.8778  -7.7094  -7.7093  -7.7093   3.7141   3.7141   3.7141   3.8979
     7.1829   7.1829   7.1829   7.4433   7.4433   7.4433   7.5739   7.5739
    16.1099  16.6144  16.6144  16.6144  20.7490  20.7490

          k = 0.4011-0.4011-0.4011 (  8423 PWs)   bands (ev):

   -64.1523 -64.1512 -64.1512 -64.1512 -30.9981 -30.9981 -30.9981 -30.9938
   -30.9275 -30.9275 -30.9275 -30.9247 -30.9247 -30.9247 -30.9219 -30.9219
    -7.8778  -7.7094  -7.7093  -7.7093   3.7141   3.7141   3.7141   3.8979
     7.1829   7.1829   7.1829   7.4433   7.4433   7.4433   7.5739   7.5739
    16.1099  16.6144  16.6144  16.6144  20.7490  20.7490

          k = 0.4011-0.4011-0.2005 (  8420 PWs)   bands (ev):

   -64.1532 -64.1512 -64.1512 -64.1503 -30.9889 -30.9866 -30.9866 -30.9788
   -30.9436 -30.9368 -30.9368 -30.9278 -30.9270 -30.9258 -30.9258 -30.9196
    -8.0528  -7.7567  -7.7567  -7.6179   4.1143   4.2097   4.2097   4.5550
     6.2757   6.6899   6.6899   7.2567   7.3410   7.3812   7.3812   7.6829
    16.3758  17.3203  17.3203  17.6894  20.2931  20.5369

          k = 0.4011-0.2005 0.0000 (  8425 PWs)   bands (ev):

   -64.1556 -64.1522 -64.1492 -64.1489 -30.9760 -30.9697 -30.9691 -30.9677
   -30.9555 -30.9520 -30.9378 -30.9368 -30.9364 -30.9296 -30.9272 -30.9195
    -8.4208  -7.9723  -7.5325  -7.4777   4.6780   4.8838   5.0095   5.1402
     5.7458   5.7941   6.7853   6.9062   6.9236   7.2756   7.3998   7.7541
    15.8242  17.4135  18.8993  19.0902  19.3386  19.4144

          k = 0.4011-0.2005 0.2005 (  8466 PWs)   bands (ev):

   -64.1549 -64.1519 -64.1495 -64.1495 -30.9825 -30.9825 -30.9768 -30.9629
   -30.9507 -30.9507 -30.9336 -30.9336 -30.9329 -30.9302 -30.9228 -30.9208
    -8.3160  -7.9070  -7.5484  -7.5483   4.4124   4.4124   4.6208   5.2680
     5.9263   5.9263   6.9258   7.0393   7.0393   7.2947   7.6157   7.6309
    15.9098  17.2782  18.3993  18.3993  19.5935  20.2106

          k = 0.4011-0.2005 0.4011 (  8420 PWs)   bands (ev):

   -64.1532 -64.1512 -64.1512 -64.1503 -30.9889 -30.9866 -30.9866 -30.9788
   -30.9436 -30.9368 -30.9368 -30.9278 -30.9270 -30.9258 -30.9258 -30.9196
    -8.0528  -7.7567  -7.7567  -7.6179   4.1143   4.2097   4.2097   4.5550
     6.2757   6.6899   6.6899   7.2567   7.3410   7.3812   7.3812   7.6829
    16.3758  17.3203  17.3203  17.6894  20.2931  20.5366

          k = 0.4011-0.2005-0.4011 (  8420 PWs)   bands (ev):

   -64.1532 -64.1512 -64.1512 -64.1503 -30.9889 -30.9866 -30.9866 -30.9788
   -30.9436 -30.9368 -30.9368 -30.9278 -30.9270 -30.9258 -30.9258 -30.9196
    -8.0528  -7.7567  -7.7567  -7.6179   4.1143   4.2097   4.2097   4.5550
     6.2757   6.6899   6.6899   7.2567   7.3410   7.3812   7.3812   7.6829
    16.3758  17.3203  17.3203  17.6894  20.2931  20.5361

          k = 0.4011-0.2005-0.2005 (  8466 PWs)   bands (ev):

   -64.1549 -64.1519 -64.1495 -64.1495 -30.9825 -30.9825 -30.9768 -30.9629
   -30.9507 -30.9507 -30.9336 -30.9336 -30.9329 -30.9302 -30.9228 -30.9208
    -8.3160  -7.9070  -7.5484  -7.5483   4.4124   4.4124   4.6208   5.2680
     5.9263   5.9263   6.9258   7.0393   7.0393   7.2947   7.6157   7.6310
    15.9098  17.2782  18.3993  18.3993  19.5935  20.2106

     the Fermi energy is    10.2374 ev

!    total energy              =    -608.51580896 Ry
     estimated scf accuracy    <          2.6E-09 Ry
     smearing contrib. (-TS)   =      -0.00000000 Ry
     internal energy E=F+TS    =    -608.51580896 Ry

     The total energy is F=E-TS. E is the sum of the following terms:
     one-electron contribution =    -295.68738636 Ry
     hartree contribution      =     165.49946028 Ry
     xc contribution           =     -98.02223999 Ry
     ewald contribution        =    -380.19660269 Ry
     DFT-D3 Dispersion         =      -0.10904021 Ry

     convergence has been achieved in  10 iterations

     Forces acting on atoms (cartesian axes, Ry/au):

     atom    1 type  1   force =    -0.00000034   -0.00000009   -0.00000010
     atom    2 type  1   force =    -0.00000045   -0.00000066    0.00000036
     atom    3 type  1   force =    -0.00000001   -0.00000001   -0.00000010
     atom    4 type  1   force =    -0.00000015    0.00000044   -0.00000007
     atom    5 type  2   force =     0.00000008    0.00000015   -0.00000009
     atom    6 type  2   force =    -0.00000017   -0.00000032    0.00000051
     atom    7 type  2   force =     0.00000100   -0.00000036   -0.00000076
     atom    8 type  2   force =     0.00000004    0.00000085    0.00000025

     Total force =     0.000002     Total SCF correction =     0.000000
     SCF correction compared to forces is large: reduce conv_thr to get better values


     Computing stress (Cartesian axis) and pressure

          total   stress  (Ry/bohr**3)                   (kbar)     P=       25.30
   0.00017196   0.00000000   0.00000000           25.30        0.00        0.00
   0.00000000   0.00017197  -0.00000000            0.00       25.30       -0.00
   0.00000000  -0.00000000   0.00017196            0.00       -0.00       25.30

 
     init_run     :      3.47s CPU      3.65s WALL (       2 calls)
     electrons    :    225.74s CPU    236.18s WALL (       5 calls)
     update_pot   :      1.32s CPU      1.34s WALL (       3 calls)
     forces       :     24.69s CPU     24.89s WALL (       5 calls)
     stress       :     28.30s CPU     28.59s WALL (       5 calls)

     Called by init_run:
     wfcinit      :      2.77s CPU      2.94s WALL (       2 calls)
     potinit      :      0.26s CPU      0.27s WALL (       2 calls)
     hinit0       :      0.39s CPU      0.40s WALL (       2 calls)

     Called by electrons:
     c_bands      :    179.28s CPU    187.91s WALL (      41 calls)
     sum_band     :     27.45s CPU     29.04s WALL (      41 calls)
     v_of_rho     :      0.42s CPU      0.49s WALL (      45 calls)
     mix_rho      :      0.06s CPU      0.12s WALL (      41 calls)

     Called by c_bands:
     init_us_2    :      2.51s CPU      2.97s WALL (    5922 calls)
     cegterg      :    172.71s CPU    180.33s WALL (    2583 calls)

     Called by *egterg:
     cdiaghg      :     16.68s CPU     17.01s WALL (    9179 calls)
     h_psi        :    142.20s CPU    149.24s WALL (    9557 calls)
     g_psi        :      0.44s CPU      0.45s WALL (    6848 calls)

     Called by h_psi:
     h_psi:calbec :      6.12s CPU      6.45s WALL (    9557 calls)
     vloc_psi     :    130.31s CPU    136.88s WALL (    9557 calls)
     add_vuspsi   :      4.85s CPU      4.95s WALL (    9557 calls)

     General routines
     calbec       :      7.62s CPU      7.98s WALL (   11132 calls)
     fft          :      0.79s CPU      0.85s WALL (     574 calls)
     ffts         :      0.02s CPU      0.02s WALL (      41 calls)
     fftw         :    146.79s CPU    154.04s WALL (  614632 calls)
 
     Parallel routines
     fft_scatt_xy :     16.94s CPU     17.72s WALL (  615247 calls)
     fft_scatt_yz :     87.50s CPU     92.13s WALL (  615247 calls)
 
     PWSCF        :   4m43.68s CPU   4m54.87s WALL

 
   This run was terminated on:  13:39:44   4Feb2024            

=------------------------------------------------------------------------------=
   JOB DONE.
=------------------------------------------------------------------------------=
