# total energy = -18498.4310617 eV	

CRYSTAL	
PRIMVEC	
		6.49905009		0.00000000		0.00000000	
		0.00000000		6.22800071		0.00000000	
		-0.40182327		0.00000000		4.23980481	
PRIMCOORD
   30 1	
Mg		0.15426600		1.55700018		2.28101515		-0.00011553		0.00000000		-0.00066696	
Mg		5.94296277		4.67099988		1.95879030		 0.00011553		0.00000000		 0.00066696	
Mg		4.37583577		1.55700018		3.88790009		-0.00020772		0.00000000		-0.00066926	
Mg		1.72139170		4.67099988		0.35190407		 0.00020772		0.00000000		 0.00066926	
Mg		2.59574205		1.55700018		0.17807202		 0.00011617		0.00000000		-0.00004254	
Mg		3.50148737		4.67099988		4.06173213		-0.00011617		0.00000000		 0.00004254	
Si		0.00000000		0.00000000		0.00000000		0.00000000		0.00000000		0.00000000	
Si		0.00000000		3.11400036		0.00000000		0.00000000		0.00000000		0.00000000	
Si		1.92167618		3.12645578		2.35309092		-0.00005374		 0.00007528		 0.00011705	
Si		4.17555325		3.10154428		1.88671324		 0.00005374		-0.00007528		-0.00011705	
Si		4.17555325		0.01245608		1.88671324		 0.00005374		 0.00007528		-0.00011705	
Si		1.92167618		6.21554398		2.35309092		-0.00005374		-0.00007528		 0.00011705	
O		5.09099320		3.48768014		0.59357319		-0.00010268		 0.00005685		-0.00045526	
O		1.00623623		2.74031992		3.64623226		 0.00010268		-0.00005685		 0.00045526	
O		1.00623623		0.37367978		3.64623226		 0.00010268		 0.00005685		 0.00045526	
O		5.09099320		5.85432028		0.59357319		-0.00010268		-0.00005685		-0.00045526	
O		5.42347615		2.74654796		2.77707205		 0.00013424		 0.00029574		-0.00029118	
O		0.67375327		3.48145210		1.46273276		-0.00013424		-0.00029574		 0.00029118	
O		0.67375327		5.86054832		1.46273276		-0.00013424		 0.00029574		 0.00029118	
O		5.42347615		0.36745174		2.77707205		 0.00013424		-0.00029574		-0.00029118	
O		1.81632787		1.55700018		1.81887615		-0.00021848		0.00000000		 0.00011493	
O		4.28090090		4.67099988		2.42092801		 0.00021848		0.00000000		-0.00011493	
O		2.87892191		3.45653994		1.03027231		-0.00033500		-0.00001542		 0.00005586	
O		3.21830621		2.77146012		3.20953184		 0.00033500		 0.00001542		-0.00005586	
O		3.21830621		0.34254023		3.20953184		 0.00033500		-0.00001542		-0.00005586	
O		2.87892191		5.88545983		1.03027231		-0.00033500		 0.00001542		 0.00005586	
O		4.05961799		1.55700018		1.32705924		-0.00021212		0.00000000		-0.00014244	
O		2.03761013		4.67099988		2.91274622		 0.00021212		0.00000000		 0.00014244	
O		6.30945915		1.55700018		0.49181692		-0.00027748		0.00000000		-0.00025916	
O		-0.21223103		4.67099988		3.74798724		 0.00027748		0.00000000		 0.00025916	
