# total energy = -14250.4647311 eV

CRYSTAL
PRIMVEC
		7.85999966		0.00000000		0.00000000
		0.00000000		7.85999966		0.00000000
		0.00000000		0.00000000		5.02400174
PRIMECORD
   24 1
O		1.10503657		2.82496326		1.27780407		 0.00001129		-0.00001129		 0.00025536
O		6.75496309		5.03503797		1.27780407		-0.00001129		 0.00001129		 0.00025536
O		2.82496326		6.75496309		3.74619610		-0.00001129		-0.00001129		-0.00025536
O		5.03503797		1.10503657		3.74619610		 0.00001129		 0.00001129		-0.00025536
O		0.65096517		1.46384555		3.96062003		-0.00022852		 0.00062332		-0.00047921
O		7.20903449		6.39615411		3.96062003		 0.00022852		-0.00062332		-0.00047921
O		1.46384555		7.20903449		1.06338014		 0.00062332		 0.00022852		 0.00047921
O		6.39615411		0.65096517		1.06338014		-0.00062332		-0.00022852		 0.00047921
O		3.27903466		5.39384695		1.06338014		 0.00022852		 0.00062332		 0.00047921
O		4.58096500		2.46615428		1.06338014		-0.00022852		-0.00062332		 0.00047921
O		2.46615428		3.27903466		3.96062003		-0.00062332		 0.00022852		-0.00047921
O		5.39384695		4.58096500		3.96062003		 0.00062332		-0.00022852		-0.00047921
O		0.00000000		3.92999983		4.11616314		0.00000000		0.00000000		-0.00049023
O		3.92999983		0.00000000		0.90783703		0.00000000		0.00000000		 0.00049023
Ca		2.60686321		1.32313662		2.54686704		-0.00060901		 0.00060901		-0.00047493
Ca		5.25313645		6.53686304		2.54686704		 0.00060901		-0.00060901		-0.00047493
Ca		1.32313662		5.25313645		2.47713313		 0.00060901		 0.00060901		 0.00047493
Ca		6.53686304		2.60686321		2.47713313		-0.00060901		-0.00060901		 0.00047493
Si		1.09969334		2.83030649		4.69934917		-0.00024719		 0.00024719		 0.00064260
Si		6.76030789		5.02969317		4.69934917		 0.00024719		-0.00024719		 0.00064260
Si		2.83030649		6.76030789		0.32465100		 0.00024719		 0.00024719		-0.00064260
Si		5.02969317		1.09969334		0.32465100		-0.00024719		-0.00024719		-0.00064260
Mg		0.00000000		0.00000000		0.00000000		0.00000000		0.00000000		0.00000000
Mg		3.92999983		3.92999983		0.00000000		0.00000000		0.00000000		0.00000000
