# total energy = -9137.39867998 eV

CRYSTAL
PRIMVEC
		5.33299967		0.00000000		0.00000000
		-2.66649983		4.61851637		0.00000000
		0.00000000		0.00000000		7.50709831
PRIMECORD
   14 1
Mg		1.77428899		0.00000000		3.42323755		-0.00002313		0.00000000		-0.00077197
Mg		-0.88714503		1.53658013		3.42323755		 0.00001157		-0.00002003		-0.00077197
Mg		1.77935481		3.08193357		3.42323755		 0.00001157		 0.00002003		-0.00077197
Si		0.00000000		3.07900896		0.57804703		-0.00000000		0.00000000		-0.00014592
Si		2.66649983		1.53950475		0.57804703		-0.00000000		-0.00000000		-0.00014592
O		0.00000000		3.07900896		2.19057174		-0.00000000		0.00000000		-0.00033945
O		2.66649983		1.53950475		2.19057174		0.00000000		0.00000000		-0.00033945
O		2.67183283		0.00000000		7.45454960		-0.00020621		-0.00000000		 0.00052704
O		-1.33591695		2.31387496		7.45454960		 0.00010310		-0.00017858		 0.00052704
O		1.33058395		2.30463767		7.45454960		 0.00010310		 0.00017858		 0.00052704
O		3.53044578		0.00000000		4.44420248		 0.00009834		-0.00000000		 0.00052774
O		-1.76522289		3.05745564		4.44420248		-0.00004917		 0.00008517		 0.00052774
O		0.90127694		1.56105806		4.44420248		-0.00004917		-0.00008517		 0.00052774
O		0.00000000		0.00000000		2.27465075		0.00000000		0.00000000		 0.00012233
