# total energy = -12349.7566583 eV

CRYSTAL
PRIMVEC
		4.44490009		0.00000000		0.00000000
		0.00000000		4.78141903		0.00000000
		0.00000000		0.00000000		6.45439942
PRIMECORD
   20 1
O		0.47515982		2.27356506		1.61360008		 0.00022675		 0.00014588		0.00000000
O		3.96974027		2.50785486		4.84080023		-0.00022675		-0.00014588		0.00000000
O		2.69760987		0.11714490		4.84080023		 0.00022675		-0.00014588		0.00000000
O		1.74729023		4.66427503		1.61360008		-0.00022675		 0.00014588		0.00000000
O		0.83697513		0.92711682		3.62801813		 0.00031075		 0.00018123		-0.00026525
O		3.60792496		3.85430311		2.82638218		-0.00031075		-0.00018123		 0.00026525
O		3.05942518		1.46359314		2.82638218		 0.00031075		-0.00018123		 0.00026525
O		1.38547491		3.31782722		3.62801813		-0.00031075		 0.00018123		-0.00026525
O		3.60792496		3.85430311		0.40081798		-0.00031075		-0.00018123		-0.00026525
O		0.83697513		0.92711682		6.05358233		 0.00031075		 0.00018123		 0.00026525
O		1.38547491		3.31782722		6.05358233		-0.00031075		 0.00018123		 0.00026525
O		3.05942518		1.46359314		0.40081798		 0.00031075		-0.00018123		-0.00026525
Mg		2.30334723		2.78135223		1.61360008		-0.00017444		-0.00013994		-0.00000000
Mg		2.14155286		2.00006814		4.84080023		 0.00017444		 0.00013994		0.00000000
Mg		0.08089718		4.39077810		4.84080023		-0.00017444		 0.00013994		0.00000000
Mg		4.36400291		0.39064182		1.61360008		 0.00017444		-0.00013994		0.00000000
Si		2.22245005		0.00000000		3.22720015		0.00000000		0.00000000		0.00000000
Si		0.00000000		2.39070996		3.22720015		0.00000000		0.00000000		0.00000000
Si		2.22245005		0.00000000		0.00000000		0.00000000		0.00000000		0.00000000
Si		0.00000000		2.39070996		0.00000000		0.00000000		0.00000000		0.00000000
