# total energy = -12351.2733888 eV

CRYSTAL
PRIMVEC
		4.44490009		0.00000000		0.00000000
		0.00000000		5.01466072		0.00000000
		0.00000000		0.00000000		6.45439942
PRIMECORD
   20 1
O		0.47515982		2.38447110		1.61360008		-0.00003386		-0.00016069		-0.00000000
O		3.96974027		2.63018918		4.84080023		 0.00003386		 0.00016069		-0.00000000
O		2.69760987		0.12285882		4.84080023		-0.00003386		 0.00016069		0.00000000
O		1.74729023		4.89180102		1.61360008		 0.00003386		-0.00016069		0.00000000
O		0.83697513		0.97234323		3.62801813		 0.00018562		 0.00024034		-0.00020415
O		3.60792496		4.04231794		2.82638218		-0.00018562		-0.00024034		 0.00020415
O		3.05942518		1.53498802		2.82638218		 0.00018562		-0.00024034		 0.00020415
O		1.38547491		3.47967315		3.62801813		-0.00018562		 0.00024034		-0.00020415
O		3.60792496		4.04231794		0.40081798		-0.00018562		-0.00024034		-0.00020415
O		0.83697513		0.97234323		6.05358233		 0.00018562		 0.00024034		 0.00020415
O		1.38547491		3.47967315		6.05358233		-0.00018562		 0.00024034		 0.00020415
O		3.05942518		1.53498802		0.40081798		 0.00018562		-0.00024034		-0.00020415
Mg		2.30334723		2.91702791		1.61360008		-0.00031611		 0.00003787		-0.00000000
Mg		2.14155286		2.09763192		4.84080023		 0.00031611		-0.00003787		-0.00000000
Mg		0.08089718		4.60496228		4.84080023		-0.00031611		-0.00003787		0.00000000
Mg		4.36400291		0.40969800		1.61360008		 0.00031611		 0.00003787		0.00000000
Si		2.22245005		0.00000000		3.22720015		0.00000000		0.00000000		0.00000000
Si		0.00000000		2.50732992		3.22720015		0.00000000		0.00000000		0.00000000
Si		2.22245005		0.00000000		0.00000000		0.00000000		0.00000000		0.00000000
Si		0.00000000		2.50732992		0.00000000		0.00000000		0.00000000		0.00000000
