# total energy = -13384.6227043 eV	

CRYSTAL	
PRIMVEC	
		3.05300001		0.00000000		0.00000000	
		-1.52650001		2.64397739		0.00000000	
		0.00000000		0.00000000		19.62187532	
PRIMCOORD
   18 1	
O		0.00000000		0.00000000		6.10829008		0.00000000		-0.00000000		-0.00036779	
O		0.00000000		0.00000000		13.51358493		0.00000000		-0.00000000		 0.00036779	
O		1.52650001		0.88132508		8.40208715		0.00000000		-0.00000000		-0.00072378	
O		0.00000000		1.76264986		11.21978817		-0.00000000		-0.00000000		 0.00072378	
O		1.52650001		0.88132508		1.40885112		0.00000000		-0.00000000		 0.00002452	
O		0.00000000		1.76264986		18.21302511		0.00000000		-0.00000000		-0.00002452	
O		0.00000000		1.76264986		3.70264788		0.00000000		0.00000000		-0.00055262	
O		1.52650001		0.88132508		15.91922713		0.00000000		0.00000000		 0.00055262	
H		1.52650001		0.88132508		9.36748300		0.00000000		-0.00000000		-0.00054636	
H		0.00000000		1.76264986		10.25439202		0.00000000		-0.00000000		 0.00054636	
H		1.52650001		0.88132508		0.44345405		0.00000000		0.00000000		-0.00005468	
H		0.00000000		1.76264986		19.17842096		0.00000000		-0.00000000		 0.00005468	
Mg		0.00000000		1.76264986		7.31699690		0.00000000		0.00000000		-0.00055755	
Mg		1.52650001		0.88132508		12.30487811		0.00000000		-0.00000000		 0.00055755	
Mg		0.00000000		0.00000000		2.49394015		0.00000000		0.00000000		-0.00020449	
Mg		0.00000000		0.00000000		17.12793517		0.00000000		0.00000000		 0.00020449	
Mg		1.52650001		0.88132508		4.90743099		0.00000000		0.00000000		-0.00045698	
Mg		0.00000000		1.76264986		14.71444402		-0.00000000		-0.00000000		 0.00045698	
