# total energy = -24705.5738049 eV	

CRYSTAL	
PRIMVEC	
		9.20100325		0.00000000		1.47216462	
		0.00000000		8.62100257		0.00000000	
		-0.20898474		0.00000000		4.65291088	
PRIMCOORD
   40 1	
Si		2.70512241		0.78882235		1.42257594		 0.00013089		 0.00024063		-0.00029525	
Si		6.28689610		7.83217929		4.70249490		-0.00013089		-0.00024063		 0.00029525	
Si		6.39138661		0.78882235		2.37603853		-0.00012825		 0.00023743		 0.00029795	
Si		2.60063004		7.83217929		3.74903231		 0.00012825		-0.00023743		-0.00029795	
Si		7.30562217		5.09932177		2.15865638		-0.00030922		-0.00002484		-0.00049078	
Si		1.68639634		3.52167894		3.96641539		 0.00030922		 0.00002484		 0.00049078	
Si		1.79088685		5.09932177		1.63995902		 0.00031043		-0.00002669		 0.00049228	
Si		7.20113073		3.52167894		4.48511182		-0.00031043		 0.00002669		-0.00049228	
Mg		-0.05224619		7.80804001		1.16322818		 0.00000006		 0.00007880		-0.00000000	
Mg		-0.15673669		0.81295977		3.48968269		-0.00000006		-0.00007880		0.00000000	
Mg		4.54825358		3.49753965		1.89930770		 0.00000010		 0.00012943		-0.00000004	
Mg		4.44376307		5.12346013		4.22576314		-0.00000010		-0.00012943		 0.00000004	
Mg		-0.05224619		2.36387757		1.16322818		 0.00000008		 0.00060674		 0.00000005	
Mg		-0.15673669		6.25712221		3.48968269		-0.00000008		-0.00060674		-0.00000005	
Mg		4.54825358		6.67437793		1.89930770		 0.00000012		 0.00055571		 0.00000008	
Mg		4.44376307		1.94662185		4.22576314		-0.00000012		-0.00055571		-0.00000008	
O		1.08887311		0.78795857		0.82562204		-0.00017818		-0.00028883		-0.00022779	
O		7.90314446		7.83304121		5.29944880		 0.00017818		 0.00028883		 0.00022779	
O		8.00763590		0.78795857		2.97299336		 0.00017672		-0.00028863		 0.00022732	
O		0.98438168		7.83304121		3.15207655		-0.00017672		 0.00028863		-0.00022732	
O		5.68937288		5.09845986		1.56170155		 0.00007500		-0.00026296		-0.00018318	
O		3.30264377		3.52254085		4.56336928		-0.00007500		 0.00026296		 0.00018318	
O		3.40713614		5.09845986		2.23691291		-0.00007573		-0.00026269		 0.00018287	
O		5.58488144		3.52254085		3.88815699		 0.00007573		 0.00026269		-0.00018287	
O		3.41968287		2.04834956		2.26703903		 0.00023297		-0.00009351		-0.00069577	
O		5.57233378		6.57265115		3.85803181		-0.00023297		 0.00009351		 0.00069577	
O		5.67682522		2.04834956		1.53157637		-0.00023440		-0.00009069		 0.00069426	
O		3.31519236		6.57265115		4.59349354		 0.00023440		 0.00009069		-0.00069426	
O		8.02018356		6.35884992		3.00311854		 0.00042342		 0.00018582		-0.00057485	
O		0.97183402		2.26214986		3.12195229		-0.00042342		-0.00018582		 0.00057485	
O		1.07632452		6.35884992		0.79549592		-0.00042407		 0.00018728		 0.00057404	
O		7.91569212		2.26214986		5.32957398		 0.00042407		-0.00018728		-0.00057404	
O		3.09353790		0.52846732		4.78297471		 0.00005154		-0.00031050		-0.00035876	
O		5.89847968		8.09253246		1.34209613		-0.00005154		 0.00031050		 0.00035876	
O		5.79398824		0.52846732		3.66855156		-0.00005136		-0.00031009		 0.00035811	
O		3.19802933		8.09253246		2.45651927		 0.00005136		 0.00031009		-0.00035811	
O		7.69403766		4.83896674		5.51905516		 0.00010794		-0.00027035		-0.00033810	
O		1.29797992		3.78203304		0.60601568		-0.00010794		 0.00027035		 0.00033810	
O		1.19348755		4.83896674		2.93247205		-0.00010783		-0.00027007		 0.00033768	
O		7.79852910		3.78203304		3.19259879		 0.00010783		 0.00027007		-0.00033768	
