# total energy = -24710.9019772 eV	

CRYSTAL	
PRIMVEC	
		9.20100148		0.00000000		-1.10411795	
		0.00000000		8.62099783		0.00000000	
		-1.55563450		0.00000000		4.92688948	
PRIMCOORD
   40 1	
Si		2.42070899		0.78882183		0.71064811		 0.00002360		 0.00041519		-0.00002681	
Si		5.22465706		7.83217879		3.11212157		-0.00002360		-0.00041519		 0.00002681	
Si		6.00247431		0.78882183		0.64867683		-0.00001608		 0.00040749		 0.00002952	
Si		1.64289174		7.83217879		3.17409285		 0.00001608		-0.00040749		-0.00002952	
Si		7.02120881		5.09932167		0.15858820		-0.00003429		 0.00051013		-0.00002280	
Si		0.62415724		3.52167894		3.66418240		 0.00003429		-0.00051013		 0.00002280	
Si		1.40197357		5.09932167		1.20073673		 0.00004099		 0.00050249		 0.00002530	
Si		6.24339156		3.52167894		2.62203294		-0.00004099		-0.00050249		-0.00002530	
Mg		-0.38890863		7.80804008		1.23172283		 0.00000002		-0.00062738		-0.00000001	
Mg		-1.16672588		0.81295961		3.69516757		-0.00000002		 0.00062738		 0.00000001	
Mg		4.21159211		3.49754024		0.67966293		 0.00000002		-0.00063468		-0.00000004	
Mg		3.43377394		5.12346038		3.14310767		-0.00000002		 0.00063468		 0.00000004	
Mg		-0.38890863		2.36387813		1.23172283		 0.00000025		-0.00052699		 0.00000059	
Mg		-1.16672588		6.25712156		3.69516757		-0.00000025		 0.00052699		-0.00000059	
Mg		4.21159211		6.67437797		0.67966293		 0.00000031		-0.00050763		 0.00000059	
Mg		3.43377394		1.94662172		3.14310767		-0.00000031		 0.00050763		-0.00000059	
O		0.90168845		0.78795907		0.55068746		 0.00008717		 0.00014600		-0.00022047	
O		6.74367667		7.83304062		3.27208314		-0.00008717		-0.00014600		 0.00022047	
O		7.52149485		0.78795907		0.80863840		-0.00009307		 0.00014646		 0.00021855	
O		0.12387120		7.83304062		3.01413220		 0.00009307		-0.00014646		-0.00021855	
O		5.50218919		5.09845984		-0.00137337		 0.00015059		 0.00014489		-0.00020294	
O		2.14317686		3.52254078		3.82414304		-0.00015059		-0.00014489		 0.00020294	
O		2.92099411		5.09845984		1.36069830		-0.00015585		 0.00014535		 0.00020114	
O		4.72437101		3.52254078		2.46207230		 0.00015585		-0.00014535		-0.00020114	
O		2.92546174		2.04835032		1.38860313		-0.00023019		 0.00026609		-0.00067803	
O		4.71990432		6.57265122		2.43416655		 0.00023019		-0.00026609		 0.00067803	
O		5.49772064		2.04835032		-0.02927819		 0.00022731		 0.00027278		 0.00067734	
O		2.14764541		6.57265122		3.85204787		-0.00022731		-0.00027278		-0.00067734	
O		7.52596155		6.35885017		0.83654322		-0.00025895		 0.00019493		-0.00066824	
O		0.11940358		2.26215045		2.98622738		 0.00025895		-0.00019493		 0.00066824	
O		0.89722083		6.35885017		0.52278171		 0.00025610		 0.00020133		 0.00066751	
O		6.74814523		2.26215045		3.29998796		-0.00025610		-0.00020133		-0.00066751	
O		1.86135225		0.52846702		4.11393358		-0.00036394		 0.00013486		-0.00008713	
O		5.78401380		8.09253266		-0.29116391		 0.00036394		-0.00013486		 0.00008713	
O		5.00619655		0.52846702		2.17228083		 0.00036457		 0.00013603		 0.00008608	
O		2.63916857		8.09253266		1.65048884		-0.00036457		-0.00013603		-0.00008608	
O		6.46185206		4.83896686		3.56187368		-0.00033639		 0.00011481		-0.00010194	
O		1.18351399		3.78203282		0.26089600		 0.00033639		-0.00011481		 0.00010194	
O		0.40569674		4.83896686		2.72434074		 0.00033708		 0.00011623		 0.00010064	
O		7.23966931		3.78203282		1.09842894		-0.00033708		-0.00011623		-0.00010064	
