# total energy = -20638.304065 eV	

CRYSTAL	
PRIMVEC	
		4.74599980		0.00000000		0.00000000	
		0.00000000		10.94349720		0.00000000	
		0.00000000		0.00000000		5.97600159	
PRIMCOORD
   28 1	
Si		2.02227004		1.02759486		1.49399992		 0.00083179		 0.00012366		-0.00000000	
Si		2.72372881		9.91590471		4.48199977		-0.00083179		-0.00012366		-0.00000000	
Si		4.39527089		4.44415564		4.48199977		 0.00083179		-0.00012366		0.00000000	
Si		0.35072891		6.49934488		1.49399992		-0.00083179		 0.00012366		0.00000000	
Mg		0.00000000		0.00000000		0.00000000		0.00000000		0.00000000		0.00000000	
Mg		2.37299990		5.47174955		0.00000000		0.00000000		-0.00000000		0.00000000	
Mg		0.00000000		0.00000000		2.98799984		0.00000000		-0.00000000		0.00000000	
Mg		2.37299990		5.47174955		2.98799984		0.00000000		0.00000000		-0.00000000	
Mg		4.70518373		3.03353771		1.49399992		-0.00007064		 0.00025113		0.00000000	
Mg		0.04081607		7.90996186		4.48199977		 0.00007064		-0.00025113		0.00000000	
Mg		2.33218383		2.43821184		4.48199977		-0.00007064		-0.00025113		-0.00000000	
Mg		2.41381503		8.50528774		1.49399992		 0.00007064		 0.00025113		-0.00000000	
O		3.63590997		1.00570773		1.49399992		 0.00048611		-0.00091441		0.00000000	
O		1.11008888		9.93779279		4.48199977		-0.00048611		 0.00091441		0.00000000	
O		1.26291102		4.46604277		4.48199977		 0.00048611		 0.00091441		-0.00000000	
O		3.48308878		6.47745776		1.49399992		-0.00048611		-0.00091441		-0.00000000	
O		1.04506916		4.89064981		1.49399992		-0.00023413		 0.00022644		0.00000000	
O		3.70093065		6.05284977		4.48199977		 0.00023413		-0.00022644		0.00000000	
O		3.41806906		0.58109974		4.48199977		-0.00023413		-0.00022644		0.00000000	
O		1.32793074		10.36240078		1.49399992		 0.00023413		 0.00022644		0.00000000	
O		1.31796415		1.78160182		0.19900120		 0.00039361		 0.00024061		 0.00083747	
O		3.42803566		9.16189776		5.77699897		-0.00039361		-0.00024061		-0.00083747	
O		3.69096405		3.69014773		5.77699897		 0.00039361		-0.00024061		-0.00083747	
O		1.05503576		7.25335184		0.19900120		-0.00039361		 0.00024061		 0.00083747	
O		3.42803566		9.16189776		3.18700104		-0.00039361		-0.00024061		 0.00083747	
O		1.31796415		1.78160182		2.78899865		 0.00039361		 0.00024061		-0.00083747	
O		1.05503576		7.25335184		2.78899865		-0.00039361		 0.00024061		-0.00083747	
O		3.69096405		3.69014773		3.18700104		 0.00039361		-0.00024061		 0.00083747	
