# total energy = -20638.8577137 eV	

CRYSTAL	
PRIMVEC	
		4.74599980		0.00000000		0.00000000	
		0.00000000		10.43449821		0.00000000	
		0.00000000		0.00000000		5.97600159	
PRIMCOORD
   28 1	
Si		2.02227004		0.97979979		1.49399992		-0.00042766		-0.00004666		0.00000000	
Si		2.72372881		9.45469984		4.48199977		 0.00042766		 0.00004666		0.00000000	
Si		4.39527089		4.23745074		4.48199977		-0.00042766		 0.00004666		0.00000000	
Si		0.35072891		6.19704985		1.49399992		 0.00042766		-0.00004666		0.00000000	
Mg		0.00000000		0.00000000		0.00000000		0.00000000		0.00000000		0.00000000	
Mg		2.37299990		5.21724958		0.00000000		0.00000000		0.00000000		0.00000000	
Mg		0.00000000		0.00000000		2.98799984		0.00000000		0.00000000		0.00000000	
Mg		2.37299990		5.21724958		2.98799984		0.00000000		0.00000000		0.00000000	
Mg		4.70518373		2.89244388		1.49399992		 0.00071194		 0.00018064		-0.00000000	
Mg		0.04081607		7.54205670		4.48199977		-0.00071194		-0.00018064		-0.00000000	
Mg		2.33218383		2.32480712		4.48199977		 0.00071194		-0.00018064		-0.00000000	
Mg		2.41381503		8.10969252		1.49399992		-0.00071194		 0.00018064		0.00000000	
O		3.63590997		0.95893116		1.49399992		-0.00001902		 0.00084470		-0.00000000	
O		1.11008888		9.47556943		4.48199977		 0.00001902		-0.00084470		-0.00000000	
O		1.26291102		4.25831985		4.48199977		-0.00001902		-0.00084470		0.00000000	
O		3.48308878		6.17618074		1.49399992		 0.00001902		 0.00084470		0.00000000	
O		1.04506916		4.66317784		1.49399992		 0.00000671		-0.00028224		0.00000000	
O		3.70093065		5.77132180		4.48199977		-0.00000671		 0.00028224		0.00000000	
O		3.41806906		0.55407175		4.48199977		 0.00000671		 0.00028224		-0.00000000	
O		1.32793074		9.88042742		1.49399992		-0.00000671		-0.00028224		0.00000000	
O		1.31796415		1.69873713		0.19900120		 0.00001127		 0.00036443		 0.00004394	
O		3.42803566		8.73576345		5.77699897		-0.00001127		-0.00036443		-0.00004394	
O		3.69096405		3.51851292		5.77699897		 0.00001127		-0.00036443		-0.00004394	
O		1.05503576		6.91598672		0.19900120		-0.00001127		 0.00036443		 0.00004394	
O		3.42803566		8.73576345		3.18700104		-0.00001127		-0.00036443		 0.00004394	
O		1.31796415		1.69873713		2.78899865		 0.00001127		 0.00036443		-0.00004394	
O		1.05503576		6.91598672		2.78899865		-0.00001127		 0.00036443		-0.00004394	
O		3.69096405		3.51851292		3.18700104		 0.00001127		-0.00036443		 0.00004394	
