# total energy = -20636.2748495 eV	

CRYSTAL	
PRIMVEC	
		4.74599980		0.00000000		0.00000000	
		0.00000000		9.16200075		0.00000000	
		0.00000000		0.00000000		5.97600159	
PRIMCOORD
   28 1	
Si		2.02227004		0.86031213		1.49399992		-0.00007199		 0.00010674		0.00000000	
Si		2.72372881		8.30168767		4.48199977		 0.00007199		-0.00010674		0.00000000	
Si		4.39527089		3.72068777		4.48199977		-0.00007199		-0.00010674		0.00000000	
Si		0.35072891		5.44131155		1.49399992		 0.00007199		 0.00010674		0.00000000	
Mg		0.00000000		0.00000000		0.00000000		0.00000000		0.00000000		0.00000000	
Mg		2.37299990		4.58099990		0.00000000		0.00000000		0.00000000		0.00000000	
Mg		0.00000000		0.00000000		2.98799984		0.00000000		-0.00000000		0.00000000	
Mg		2.37299990		4.58099990		2.98799984		0.00000000		0.00000000		-0.00000000	
Mg		4.70518373		2.53970694		1.49399992		-0.00009975		 0.00065109		0.00000000	
Mg		0.04081607		6.62229381		4.48199977		 0.00009975		-0.00065109		0.00000000	
Mg		2.33218383		2.04129391		4.48199977		-0.00009975		-0.00065109		-0.00000000	
Mg		2.41381503		7.12070589		1.49399992		 0.00009975		 0.00065109		-0.00000000	
O		3.63590997		0.84198783		1.49399992		-0.00015207		 0.00008838		-0.00000000	
O		1.11008888		8.32001245		4.48199977		 0.00015207		-0.00008838		-0.00000000	
O		1.26291102		3.73901207		4.48199977		-0.00015207		-0.00008838		-0.00000000	
O		3.48308878		5.42298772		1.49399992		 0.00015207		 0.00008838		-0.00000000	
O		1.04506916		4.09449790		1.49399992		 0.00071068		 0.00001466		-0.00000000	
O		3.70093065		5.06750190		4.48199977		-0.00071068		-0.00001466		-0.00000000	
O		3.41806906		0.48650200		4.48199977		 0.00071068		-0.00001466		0.00000000	
O		1.32793074		8.67549780		1.49399992		-0.00071068		 0.00001466		0.00000000	
O		1.31796415		1.49157377		0.19900120		 0.00014638		 0.00012534		 0.00000480	
O		3.42803566		7.67042651		5.77699897		-0.00014638		-0.00012534		-0.00000480	
O		3.69096405		3.08942566		5.77699897		 0.00014638		-0.00012534		-0.00000480	
O		1.05503576		6.07257367		0.19900120		-0.00014638		 0.00012534		 0.00000480	
O		3.42803566		7.67042651		3.18700104		-0.00014638		-0.00012534		 0.00000480	
O		1.31796415		1.49157377		2.78899865		 0.00014638		 0.00012534		-0.00000480	
O		1.05503576		6.07257367		2.78899865		-0.00014638		 0.00012534		-0.00000480	
O		3.69096405		3.08942566		3.18700104		 0.00014638		-0.00012534		 0.00000480	
