# total energy = -20638.6627813 eV	

CRYSTAL	
PRIMVEC	
		4.74599980		0.00000000		0.00000000	
		0.00000000		10.68899771		0.00000000	
		0.00000000		0.00000000		5.97600159	
PRIMCOORD
   28 1	
Si		2.02227004		1.00369685		1.49399992		 0.00057947		-0.00056712		0.00000000	
Si		2.72372881		9.68530275		4.48199977		-0.00057947		 0.00056712		0.00000000	
Si		4.39527089		4.34080295		4.48199977		 0.00057947		 0.00056712		0.00000000	
Si		0.35072891		6.34819761		1.49399992		-0.00057947		-0.00056712		0.00000000	
Mg		0.00000000		0.00000000		0.00000000		0.00000000		-0.00000000		0.00000000	
Mg		2.37299990		5.34449980		0.00000000		0.00000000		0.00000000		0.00000000	
Mg		0.00000000		0.00000000		2.98799984		0.00000000		0.00000000		-0.00000000	
Mg		2.37299990		5.34449980		2.98799984		0.00000000		-0.00000000		-0.00000000	
Mg		4.70518373		2.96299080		1.49399992		 0.00012233		 0.00051745		0.00000000	
Mg		0.04081607		7.72600976		4.48199977		-0.00012233		-0.00051745		-0.00000000	
Mg		2.33218383		2.38150900		4.48199977		 0.00012233		-0.00051745		0.00000000	
Mg		2.41381503		8.30749060		1.49399992		-0.00012233		 0.00051745		0.00000000	
O		3.63590997		0.98231897		1.49399992		 0.00008269		 0.00008775		-0.00000000	
O		1.11008888		9.70668064		4.48199977		-0.00008269		-0.00008775		-0.00000000	
O		1.26291102		4.36218083		4.48199977		 0.00008269		-0.00008775		-0.00000000	
O		3.48308878		6.32681877		1.49399992		-0.00008269		 0.00008775		-0.00000000	
O		1.04506916		4.77691382		1.49399992		 0.00001588		 0.00082230		0.00000000	
O		3.70093065		5.91208578		4.48199977		-0.00001588		-0.00082230		-0.00000000	
O		3.41806906		0.56758598		4.48199977		 0.00001588		-0.00082230		-0.00000000	
O		1.32793074		10.12141457		1.49399992		-0.00001588		 0.00082230		-0.00000000	
O		1.31796415		1.74016876		0.19900120		 0.00043634		 0.00029637		 0.00085108	
O		3.42803566		8.94883084		5.77699897		-0.00043634		-0.00029637		-0.00085108	
O		3.69096405		3.60433104		5.77699897		 0.00043634		-0.00029637		-0.00085108	
O		1.05503576		7.08466951		0.19900120		-0.00043634		 0.00029637		 0.00085108	
O		3.42803566		8.94883084		3.18700104		-0.00043634		-0.00029637		 0.00085108	
O		1.31796415		1.74016876		2.78899865		 0.00043634		 0.00029637		-0.00085108	
O		1.05503576		7.08466951		2.78899865		-0.00043634		 0.00029637		-0.00085108	
O		3.69096405		3.60433104		3.18700104		 0.00043634		-0.00029637		 0.00085108	
