# total energy = -10067.786195 eV

CRYSTAL
PRIMVEC
		4.34575081		0.00000000		0.00000000
		0.00000000		4.82861152		0.00000000
		0.00000000		0.00000000		4.82861152
PRIMECORD
   12 1
Mg		0.00000000		0.00000000		0.00000000		0.00000000		0.00000000		-0.00000000
Mg		2.17287584		0.00000000		2.41430576		-0.00000000		0.00000000		0.00000000
Mg		0.00000000		2.41430576		2.41430576		0.00000000		0.00000000		-0.00000000
Mg		2.17287584		2.41430576		0.00000000		-0.00000000		0.00000000		0.00000000
O		0.38861616		2.84610174		4.39681599		-0.00006422		-0.00012019		-0.00006700
O		3.95713465		1.98250979		0.43179597		 0.00006422		 0.00012019		 0.00006700
O		1.78425881		1.98250979		1.98250979		 0.00006422		 0.00012019		-0.00006700
O		2.56149200		2.84610174		2.84610174		-0.00006422		-0.00012019		 0.00006700
O		3.95713465		0.43179597		2.84610174		 0.00006422		-0.00012019		 0.00006700
O		0.38861616		4.39681599		1.98250979		-0.00006422		 0.00012019		-0.00006700
O		2.56149200		4.39681599		0.43179597		-0.00006422		 0.00012019		 0.00006700
O		1.78425881		0.43179597		4.39681599		 0.00006422		-0.00012019		-0.00006700
