# total energy = -10068.8000661 eV

CRYSTAL
PRIMVEC
		5.31147380		0.00000000		0.00000000
		0.00000000		4.82861302		0.00000000
		0.00000000		0.00000000		4.82861302
PRIMECORD
   12 1
Mg		0.00000000		0.00000000		0.00000000		-0.00000000		0.00000000		-0.00000000
Mg		2.65573690		0.00000000		2.41430598		0.00000000		0.00000000		-0.00000000
Mg		0.00000000		2.41430598		2.41430598		0.00000000		0.00000000		0.00000000
Mg		2.65573690		2.41430598		0.00000000		0.00000000		0.00000000		0.00000000
O		0.47497589		2.84610171		4.39681570		 0.00089256		-0.00069844		-0.00030700
O		4.83649791		1.98250972		0.43179573		-0.00089256		 0.00069844		 0.00030700
O		2.18076101		1.98250972		1.98250972		-0.00089256		 0.00069844		-0.00030700
O		3.13071172		2.84610171		2.84610171		 0.00089256		-0.00069844		 0.00030700
O		4.83649791		0.43179573		2.84610171		-0.00089256		-0.00069844		 0.00030700
O		0.47497589		4.39681570		1.98250972		 0.00089256		 0.00069844		-0.00030700
O		3.13071172		4.39681570		0.43179573		 0.00089256		 0.00069844		 0.00030700
O		2.18076101		0.43179573		4.39681570		-0.00089256		-0.00069844		-0.00030700
