# total energy = -22463.2230967 eV	

CRYSTAL	
PRIMVEC	
		9.73970320		0.00000000		1.55835685	
		0.00000000		8.91739627		0.00000000	
		-0.62732368		0.00000000		4.82062740	
PRIMCOORD
   40 1	
Mg		-0.15683092		8.09771305		1.20515586		0.00000000		 0.00029037		 0.00000002	
Mg		-0.47049375		0.81968815		3.61546759		-0.00000000		-0.00029037		-0.00000002	
Mg		4.71301871		3.63901295		1.98433232		 0.00000002		 0.00026349		 0.00000001	
Mg		4.39935588		5.27838826		4.39464405		-0.00000002		-0.00026349		-0.00000001	
Ca		-0.15683092		2.68841832		1.20515586		 0.00000003		 0.00084522		 0.00000001	
Ca		-0.47049375		6.22898288		3.61546759		-0.00000003		-0.00084522		-0.00000001	
Ca		4.71301871		7.14711744		1.98433232		-0.00000010		 0.00087679		 0.00000002	
Ca		4.39935588		1.77028178		4.39464405		 0.00000010		-0.00087679		-0.00000002	
Si		2.64352128		0.83101252		1.55164271		-0.00020594		-0.00024925		 0.00001345	
Si		6.46885232		8.08638769		4.82733267		 0.00020594		 0.00024925		-0.00001345	
Si		6.78251613		0.83101252		2.41702094		 0.00020729		-0.00025035		-0.00001285	
Si		2.32985747		8.08638769		3.96195444		-0.00020729		 0.00025035		 0.00001285	
Si		7.51337189		5.28971263		2.33081917		 0.00017212		-0.00007377		 0.00011813	
Si		1.59900269		3.62768758		4.04815720		-0.00017212		 0.00007377		-0.00011813	
Si		1.91266552		5.28971263		1.63784448		-0.00017252		-0.00007368		-0.00011825	
Si		7.19970907		3.62768758		4.74113090		 0.00017252		 0.00007368		 0.00011825	
O		1.03633280		0.77492229		0.86390559		 0.00014515		 0.00042842		-0.00052907	
O		8.07604178		8.14247792		5.51506979		-0.00014515		-0.00042842		 0.00052907	
O		8.38970461		0.77492229		3.10475806		-0.00014589		 0.00042849		 0.00052882	
O		0.72266998		8.14247792		3.27421831		 0.00014589		-0.00042849		-0.00052882	
O		5.90618243		5.23362141		1.64308204		-0.00007923		 0.00039694		-0.00058074	
O		3.20619215		3.68377782		4.73589333		 0.00007923		-0.00039694		 0.00058074	
O		3.51985498		5.23362141		2.32558161		 0.00007936		 0.00039698		 0.00058068	
O		5.59251960		3.68377782		4.05339377		-0.00007936		-0.00039698		-0.00058068	
O		3.31610794		2.23104412		2.09427277		 0.00034562		-0.00027530		-0.00087850	
O		5.79626565		6.68635609		4.28470261		-0.00034562		 0.00027530		 0.00087850	
O		6.10992848		2.23104412		1.87439088		-0.00034616		-0.00027428		 0.00087822	
O		3.00244610		6.68635609		4.50458449		 0.00034616		 0.00027428		-0.00087822	
O		8.18595757		6.68974423		2.87344922		 0.00021838		-0.00045472		-0.00092152	
O		0.92641603		2.22765598		3.50552715		-0.00021838		 0.00045472		 0.00092152	
O		1.24007886		6.68974423		1.09521542		-0.00021826		-0.00045490		 0.00092156	
O		7.87229474		2.22765598		5.28376095		 0.00021826		 0.00045490		-0.00092156	
O		2.79154600		0.15551906		5.34515384		-0.00019253		 0.00053193		-0.00044283	
O		6.32082760		8.76188016		1.03382154		 0.00019253		-0.00053193		 0.00044283	
O		6.00716477		0.15551906		3.44413327		 0.00019259		 0.00053203		 0.00044279	
O		3.10520882		8.76188016		2.93484211		-0.00019259		-0.00053203		-0.00044279	
O		7.66139562		4.61422016		6.12432931		-0.00025273		 0.00051356		-0.00045410	
O		1.45097798		4.30318104		0.25464508		 0.00025273		-0.00051356		 0.00045410	
O		1.13731515		4.61422016		2.66495681		 0.00025276		 0.00051369		 0.00045402	
O		7.97505845		4.30318104		3.71401758		-0.00025276		-0.00051369		-0.00045402	
