# total energy = -11143.4969335 eV

CRYSTAL
PRIMVEC
		7.44100247		-1.19056371		0.00000000
		-0.70559990		4.41000123		0.00000000
		0.00000000		0.00000000		8.29200259
PRIMECORD
   12 1
Ca		-0.03092778		1.07922459		5.64411568		-0.00073094		-0.00021944		-0.00030539
Ca		6.76632810		2.14021519		2.64788390		 0.00073094		 0.00021944		 0.00030539
Ca		3.04582762		2.73549478		1.49811589		 0.00073094		 0.00021944		-0.00030539
Ca		3.68957195		0.48394424		6.79388369		-0.00073094		-0.00021944		 0.00030539
Si		1.83706006		0.78034593		3.19739501		-0.00016646		-0.00026548		-0.00014052
Si		4.89833951		2.43909385		5.09460457		 0.00016646		 0.00026548		 0.00014052
Si		1.17783978		3.03437420		7.34339480		 0.00016646		 0.00026548		-0.00014052
Si		5.55755979		0.18506634		0.94860478		-0.00016646		-0.00026548		 0.00014052
Mg		0.89614615		0.93089300		0.52919502		 0.00047616		 0.00048464		-0.00070399
Mg		5.83925341		2.28854678		7.76280380		-0.00047616		-0.00048464		 0.00070399
Mg		2.11875368		2.88382713		4.67519481		-0.00047616		-0.00048464		-0.00070399
Mg		4.61664589		0.33561265		3.61680401		 0.00047616		 0.00048464		 0.00070399
