# total energy = -11146.501652 eV

CRYSTAL
PRIMVEC
		7.44100028		-0.29763971		0.00000000
		-0.17640336		4.41000211		0.00000000
		0.00000000		0.00000000		8.29200054
PRIMECORD
   12 1
Ca		0.10137236		1.09668111		5.64411594		 0.00042833		 0.00080290		-0.00013117
Ca		7.16322829		3.01567905		2.64788385		-0.00042833		-0.00080290		 0.00013117
Ca		3.44272815		3.16449891		1.49811567		-0.00042833		-0.00080290		-0.00013117
Ca		3.82187175		0.94786125		6.79388412		 0.00042833		 0.00080290		 0.00013117
Si		1.96936018		1.02196213		3.19739507		-0.00007390		-0.00081717		-0.00056925
Si		5.29523972		3.09039803		5.09460473		 0.00007390		 0.00081717		 0.00056925
Si		1.57474032		3.23921789		7.34339534		 0.00007390		 0.00081717		-0.00056925
Si		5.68986032		0.87314227		0.94860520		-0.00007390		-0.00081717		 0.00056925
Mg		1.02844619		1.05959827		0.52919519		 0.00009789		 0.00013574		-0.00024895
Mg		6.23615371		3.05276189		7.76280386		-0.00009789		-0.00013574		 0.00024895
Mg		2.51565431		3.20158174		4.67519471		-0.00009789		-0.00013574		-0.00024895
Mg		4.74894633		0.91077767		3.61680434		 0.00009789		 0.00013574		 0.00024895
